179
Lattice="10.720992125991367 0.0 0.0 -5.360496062995684 9.284647205911675 0.0 0.0 0.0 34.99999747733031" Properties=species:S:1:pos:R:3:forces:R:3 energy=-72984.045829919 free_energy=-72984.045829919 pbc="T T T"
Si       1.78683208      -0.00000002       5.05623624       0.00001877      -0.00000694      -0.04604409
Si       0.89341603       1.54744198      12.64850174      -0.00109889       0.00014681      -0.06989467
Si       0.89341603       1.54744198       2.52836107       0.00011801       0.00000463       0.22315761
Si       1.78683208      -0.00000002      10.12062657      -0.00055073      -0.00126755      -0.07444629
Si      -0.00021238      -0.00043901      15.17717205      -0.00233482       0.00097368      -0.00707542
Si       0.00000000       0.00000000       7.58805938      -0.00016892      -0.00014604      -0.09332796
C        0.00000000       0.00000000       5.68435955      -0.00014527       0.00018615       0.08246531
C        0.00000000       0.00000000      13.27662505      -0.00088420      -0.00133517       0.02243159
C        1.78683208      -0.00000002       3.15844319       0.00076233       0.00033707       0.08335851
C        0.89341603       1.54744198      10.75070869      -0.00183525       0.00049494       0.03200432
C        0.89341603       1.54744198       0.63055283       0.00076336       0.00145010      -0.26682060
C        1.78683208      -0.00000002       8.22281833       0.00053890       0.00004088       0.10932099
Si       1.78683208       3.09488391       5.05623624       0.00003805       0.00006016      -0.04600655
Si       3.57366413       0.00000002      12.64850174       0.00067594      -0.00007251      -0.07420667
Si       3.57366413       0.00000002       2.52836107      -0.00000771       0.00005811       0.22310542
Si       1.78683208       3.09488391      10.12062657       0.00008305       0.00144625      -0.07478902
Si      -0.00387046       3.09552892      15.17732095       0.00214147      -0.00284775      -0.00739604
Si       0.00000000       3.09488393       7.58805938       0.00004577      -0.00004345      -0.09334364
C        0.00000000       3.09488393       5.68435955       0.00013601       0.00044866       0.08242597
C        0.00000000       3.09488393      13.27662505      -0.00289146       0.00170567       0.02540996
C        1.78683208       3.09488391       3.15844319       0.00044969       0.00069883       0.08308006
C        3.57366413       0.00000002      10.75070869       0.00205843      -0.00190339       0.03116331
C        3.57366413       0.00000002       0.63055283       0.00158611      -0.00005194      -0.26662623
C        1.78683208       3.09488391       8.22281833       0.00005374      -0.00022523       0.10896875
Si      -0.89341603       1.54744195       5.05623624      -0.00002443       0.00001646      -0.04603637
Si      -1.78683208       3.09488395      12.64850174      -0.00040006       0.00037410      -0.07393439
Si      -1.78683208       3.09488395       2.52836107      -0.00009076       0.00001517       0.22302134
Si      -0.89341603       1.54744195      10.12062657       0.00106855      -0.00021237      -0.07462473
Si       2.68056330       1.54505026      15.17827794       0.00216770       0.00377232      -0.00678077
Si       2.68024811       1.54744196       7.58805938       0.00016378       0.00010696      -0.09346320
C        2.68024811       1.54744196       5.68435955       0.00062375       0.00048491       0.08246633
C        2.68024811       1.54744196      13.27662505       0.00069394      -0.00207462       0.04916875
C       -0.89341603       1.54744195       3.15844319      -0.00007636       0.00071785       0.08311914
C       -1.78683208       3.09488395      10.75070869       0.00070423       0.00180260       0.03127310
C       -1.78683208       3.09488395       0.63055283      -0.00077390       0.00163856      -0.26662700
C       -0.89341603       1.54744195       8.22281833      -0.00062092       0.00024683       0.10891810
C        0.04045852       0.08168988      18.62562179       0.00094977      -0.00380806       0.00331852
C        1.38109227       0.85589485      18.62750470       0.00022909      -0.00322134       0.00273180
C       -1.30062703       2.40205333      18.62864006       0.00202063       0.00019412      -0.00824810
C        0.04088224       3.17653625      18.62643066      -0.00003600      -0.00084846      -0.00196664
C        2.72075719       0.08196974      18.62819115       0.00137040      -0.00101841      -0.00308789
C        4.06001953       0.85533146      18.62796403       0.00169204       0.00134880      -0.00098576
C        1.38173134       2.40270833      18.62707093      -0.00085695      -0.00300176       0.00356946
C        2.72160482       3.17627089      18.62537525      -0.00225743      -0.00193964       0.00257625
Si      -0.89341603       4.64232588       5.05623624       0.00001491       0.00005322      -0.04603946
Si      -1.78683208       6.18976788      12.64850174      -0.00120405      -0.00026842      -0.06929149
Si      -1.78683208       6.18976788       2.52836107       0.00012136      -0.00005888       0.22314450
Si      -0.89341603       4.64232588      10.12062657      -0.00074922      -0.00147093      -0.07444912
Si      -2.67982743       4.64043665      15.17719676      -0.00169230       0.00030853      -0.00704945
Si      -2.68024811       4.64232589       7.58805938      -0.00011184      -0.00009230      -0.09324003
C       -2.68024811       4.64232589       5.68435955      -0.00023500       0.00017226       0.08244834
C       -2.68024811       4.64232589      13.27662505      -0.00095337      -0.00136911       0.02272032
C       -0.89341603       4.64232588       3.15844319       0.00026997       0.00063249       0.08326698
C       -1.78683208       6.18976788      10.75070869      -0.00125881       0.00038927       0.03223623
C       -1.78683208       6.18976788       0.63055283       0.00085849      -0.00043015      -0.26674758
C       -0.89341603       4.64232588       8.22281833       0.00007405       0.00039055       0.10936393
Si      -0.89341603       7.73720981       5.05623624       0.00005862      -0.00005656      -0.04601812
Si       0.89341603       4.64232591      12.64850174       0.00237004      -0.00017766      -0.06655403
Si       0.89341603       4.64232591       2.52836107      -0.00011236       0.00009307       0.22311802
Si      -0.89341603       7.73720981      10.12062657      -0.00059084       0.00148687      -0.07476331
Si      -2.68019451       7.74042476      15.17735939       0.00297297      -0.00282770      -0.00740555
Si      -2.68024811       7.73720982       7.58805938       0.00004294      -0.00013035      -0.09335984
C       -2.68024811       7.73720982       5.68435955       0.00077210      -0.00044711       0.08249513
C       -2.68024811       7.73720982      13.27662505      -0.00034710       0.00234922       0.02626588
C       -0.89341603       7.73720981       3.15844319       0.00035533       0.00010439       0.08300935
C        0.89341603       4.64232591      10.75070869       0.00184631      -0.00168690       0.03277899
C        0.89341603       4.64232591       0.63055283       0.00000617       0.00100299      -0.26659974
C       -0.89341603       7.73720981       8.22281833       0.00019283      -0.00070911       0.10897184
Si      -3.57366413       6.18976784       5.05623624      -0.00001491      -0.00003342      -0.04602686
Si      -4.46708018       7.73720984      12.64850174      -0.00162622      -0.00103230      -0.06646842
Si      -4.46708018       7.73720984       2.52836107      -0.00000051      -0.00014321       0.22316893
Si      -3.57366413       6.18976784      10.12062657       0.00073791      -0.00090117      -0.07473683
Si      -0.00040406       6.18805000      15.17831890       0.00144290       0.00462130      -0.00691910
Si       0.00000000       6.18976786       7.58805938       0.00022317       0.00006016      -0.09362081
C        0.00000000       6.18976786       5.68435955       0.00005142       0.00022626       0.08234241
C        0.00000000       6.18976786      13.27662505       0.00061038      -0.00304239       0.05018536
C       -3.57366413       6.18976784       3.15844319       0.00055562      -0.00032113       0.08302221
C       -4.46708018       7.73720984      10.75070869       0.00127321       0.00058930       0.03288441
C       -4.46708018       7.73720984       0.63055283       0.00096648      -0.00116368      -0.26653161
C       -3.57366413       6.18976784       8.22281833       0.00012650      -0.00044043       0.10900860
C       -2.63986982       4.72356648      18.62550780       0.00016866       0.00190519       0.00432588
C       -1.29891468       5.49731374      18.62746854      -0.00099579       0.00265955       0.00292797
C       -3.98088328       7.04441569      18.62631411      -0.00122487      -0.00168921       0.00478148
C       -2.63977387       7.81849650      18.62681089       0.00040109       0.00019772      -0.00325219
C        0.04130774       4.72408037      18.62693302      -0.00139534       0.00080038       0.00401375
C        1.38138989       5.49758390      18.62530722      -0.00364300      -0.00010824       0.00272614
C       -1.29887310       7.04392370      18.62836628       0.00014681       0.00258756      -0.00401606
C        0.04067777       7.81683410      18.62809585       0.00161414       0.00383609      -0.00215201
Si       7.14732829      -0.00000002       5.05623624      -0.00005425      -0.00000540      -0.04601889
Si       6.25391224       1.54744198      12.64850174      -0.00121947       0.00060935      -0.06990778
Si       6.25391224       1.54744198       2.52836107       0.00008073       0.00000180       0.22318024
Si       7.14732829      -0.00000002      10.12062657      -0.00041806      -0.00120559      -0.07436325
Si       5.36155359       0.00013383      15.17726206      -0.00462876      -0.00149715      -0.00737907
Si       5.36049621       0.00000000       7.58805938      -0.00005322       0.00008433      -0.09331459
C        5.36049621       0.00000000       5.68435955      -0.00021057       0.00010824       0.08237480
C        5.36049621       0.00000000      13.27662505       0.00243509       0.00197846       0.02409432
C        7.14732829      -0.00000002       3.15844319      -0.00035404       0.00032499       0.08331094
C        6.25391224       1.54744198      10.75070869      -0.00276188       0.00149638       0.03214496
C        6.25391224       1.54744198       0.63055283      -0.00074639       0.00041729      -0.26682857
C        7.14732829      -0.00000002       8.22281833      -0.00063840       0.00006068       0.10936496
Si       7.14732829       3.09488391       5.05623624      -0.00005708      -0.00002083      -0.04601118
Si       8.93416034       0.00000002      12.64850174       0.00037538      -0.00229291      -0.07487387
Si       8.93416034       0.00000002       2.52836107      -0.00014501       0.00006685       0.22318050
Si       7.14732829       3.09488391      10.12062657      -0.00123747       0.00192910      -0.07460236
Si       5.35805938       3.10157029      15.17686446       0.00144650      -0.00423229      -0.00676663
Si       5.36049621       3.09488393       7.58805938      -0.00004679       0.00016352      -0.09320506
C        5.36049621       3.09488393       5.68435955       0.00021623      -0.00019463       0.08244011
C        5.36049621       3.09488393      13.27662505      -0.00230448       0.00808920       0.01578606
C        7.14732829       3.09488391       3.15844319      -0.00009462       0.00033090       0.08305769
C        8.93416034       0.00000002      10.75070869       0.00069908      -0.00077442       0.03096225
C        8.93416034       0.00000002       0.63055283      -0.00169384      -0.00005014      -0.26675530
C        7.14732829       3.09488391       8.22281833      -0.00003805      -0.00057516       0.10886128
Si       4.46708018       1.54744195       5.05623624       0.00005734       0.00003805      -0.04602609
Si       3.57366413       3.09488395      12.64850174       0.00157583       0.00340491      -0.07501862
Si       3.57366413       3.09488395       2.52836107       0.00001311      -0.00004319       0.22315350
Si       4.46708018       1.54744195      10.12062657       0.00131332       0.00061424      -0.07465558
Si       8.04005443       1.54509954      15.17817603       0.00407931       0.00546771      -0.00674272
Si       8.04074432       1.54744196       7.58805938      -0.00006042       0.00017663      -0.09348043
C        8.04074432       1.54744196       5.68435955      -0.00037178       0.00049725       0.08228044
C        8.04074432       1.54744196      13.27662505      -0.00325733      -0.00327430       0.04709258
C        4.46708018       1.54744195       3.15844319       0.00040829       0.00039852       0.08308931
C        3.57366413       3.09488395      10.75070869       0.00047900       0.00049854       0.03096045
C        3.57366413       3.09488395       0.63055283       0.00088909       0.00061115      -0.26663805
C        4.46708018       1.54744195       8.22281833      -0.00018872      -0.00032962       0.10897184
C        5.40075807       0.08086604      18.62685896       0.00313160       0.00379495      -0.00293594
C        6.74118687       0.85492324      18.62757648       0.00331878       0.00310718       0.00200880
C        4.06007863       2.40254233      18.62623743      -0.00018178       0.00036355       0.00591431
C        5.40082517       3.17698655      18.62382279       0.00016378       0.00056230       0.00317634
C        8.08121121       0.08145962      18.62700899       0.00297065       0.00025171       0.00275545
C        9.42050714       0.85549928      18.62790504       0.00216538      -0.00217901      -0.00338074
C        6.74132144       2.40196793      18.62703173       0.00247469       0.00198746       0.00331672
C        8.08106061       3.17500407      18.62775444       0.00223172       0.00197101      -0.00174964
Si       4.46708018       4.64232588       5.05623624      -0.00000617      -0.00006299      -0.04600218
Si       3.57366413       6.18976788      12.64850174       0.00025248      -0.00159871      -0.08762782
Si       3.57366413       6.18976788       2.52836107       0.00007996      -0.00012418       0.22321598
Si       4.46708018       4.64232588      10.12062657      -0.00091146      -0.00043812      -0.07340988
Si       2.68971509       4.64615855      15.17684608      -0.00558675      -0.00077107      -0.00753025
Si       2.68024811       4.64232589       7.58805938       0.00017612       0.00012033      -0.09315724
C        2.68024811       4.64232589       5.68435955      -0.00033861      -0.00000231       0.08241157
C        2.68024811       4.64232589      13.27662505       0.01044922       0.00444004       0.01426859
C        4.46708018       4.64232588       3.15844319       0.00015529       0.00003600       0.08336596
C        3.57366413       6.18976788      10.75070869      -0.00302259       0.00100942       0.02786664
C        3.57366413       6.18976788       0.63055283      -0.00088575      -0.00146579      -0.26692679
C        4.46708018       4.64232588       8.22281833       0.00015452      -0.00051782       0.10882271
Si       4.46708018       7.73720981       5.05623624       0.00000746      -0.00008048      -0.04600038
Si       6.25391224       4.64232591      12.64850174      -0.00221269      -0.00053556      -0.07875495
Si       6.25391224       4.64232591       2.52836107      -0.00007662       0.00002288       0.22301080
Si       4.46708018       7.73720981      10.12062657      -0.00177149       0.00009076      -0.07429717
Si       2.68306828       7.73585149      15.17694309       0.00031547      -0.00292463      -0.00692604
Si       2.68024811       7.73720982       7.58805938       0.00004474      -0.00016661      -0.09311584
C        2.68024811       7.73720982       5.68435955      -0.00029362      -0.00043272       0.08263371
C        2.68024811       7.73720982      13.27662505       0.00308044      -0.00135986       0.01710838
C        4.46708018       7.73720981       3.15844319      -0.00021289      -0.00033296       0.08311220
C        6.25391224       4.64232591      10.75070869       0.00258704      -0.00146630       0.03015184
C        6.25391224       4.64232591       0.63055283      -0.00013987      -0.00127861      -0.26680440
C        4.46708018       7.73720981       8.22281833       0.00011467      -0.00059675       0.10864145
Si       1.78683208       6.18976784       5.05623624      -0.00005425      -0.00004937      -0.04600321
Si       0.89341603       7.73720984      12.64850174       0.00179386       0.00026611      -0.06963087
Si       0.89341603       7.73720984       2.52836107      -0.00007816      -0.00008485       0.22329465
Si       1.78683208       6.18976784      10.12062657       0.00317763       0.00004757      -0.07444218
Si       5.35204127       6.18260668      15.17770903       0.00425775       0.00625369      -0.00684685
Si       5.36049621       6.18976786       7.58805938      -0.00015864      -0.00011287      -0.09332822
C        5.36049621       6.18976786       5.68435955       0.00018101      -0.00042115       0.08235809
C        5.36049621       6.18976786      13.27662505      -0.00923180      -0.00910762       0.03730311
C        1.78683208       6.18976784       3.15844319      -0.00010850       0.00011750       0.08303223
C        0.89341603       7.73720984      10.75070869       0.00023243       0.00160231       0.03211179
C        0.89341603       7.73720984       0.63055283      -0.00077827      -0.00037770      -0.26667791
C        1.78683208       6.18976784       8.22281833      -0.00130124      -0.00036870       0.10877026
C        2.72248640       4.72460766      18.62064875      -0.00443901      -0.00200109      -0.00837871
C        4.06208567       5.49816967      18.61754658      -0.00434825      -0.00256673      -0.01555569
C        1.38045310       7.04380661      18.62621799      -0.00116368       0.00214070       0.00578087
C        2.72146757       7.81801047      18.62370463      -0.00035713      -0.00024683       0.00444647
C        5.40059658       4.72504314      18.62198311      -0.00176352      -0.00180491      -0.00723766
C        6.73994669       5.49774151      18.62524934      -0.00140665      -0.00085001       0.00311721
C        4.06208900       7.04371000      18.62186729      -0.00260016      -0.00312055      -0.00519903
C        5.40088385       7.81738953      18.62518507      -0.00062195      -0.00361060       0.00409885
C        4.04848858       5.49905111      22.87306061       0.00061912      -0.00027614       0.01921077
O        4.05302331       5.52176186      24.04349684      -0.00059367       0.00057001      -0.00249371
O        4.04419737       5.47641538      21.69598994      -0.00119685      -0.00090477       0.01210115
