48
Lattice="8.315575849598094 0.0 0.0 4.157787924799047 7.20149657514819 0.0 0.0 0.0 19.999999365264614" Properties=species:S:1:pos:R:3:forces:R:3 energy=-281406.75116904976 free_energy=-281406.75116904976 pbc="T T T"
Pt       3.00284680       1.20024997       7.73678694      -0.00105158      -0.07246320      -0.50143351
Pt       5.77470538       1.20024997       7.73678694      -0.00078264      -0.07175820      -0.50160243
Pt       8.54656396       1.20024997       7.73678694      -0.00045663      -0.07245934      -0.50135663
Pt       4.38877609       3.60074992       7.73678694       0.00017226      -0.07081692      -0.50287307
Pt       7.16063467       3.60074992       7.73678694      -0.00153829      -0.07070971      -0.50288695
Pt       9.93249325       3.60074992       7.73678694      -0.00080476      -0.07206288      -0.50270620
Pt       5.77470538       6.00124987       7.73678694      -0.00064997      -0.07198395      -0.50390742
Pt       8.54656396       6.00124987       7.73678694      -0.00172495      -0.07268586      -0.50351044
Pt      11.31842254       6.00124987       7.73678694       0.00008228      -0.07272648      -0.50348756
Pt       1.61691751       2.00041662      10.00000000      -0.00029851       0.04214629       0.49708140
Pt       4.38877609       2.00041662      10.00000000       0.00068571       0.04138730       0.50228429
Pt       7.16063467       2.00041662      10.00000000      -0.00114054       0.04144181       0.50232028
Pt       3.00284680       4.40091657      10.00000000       0.00063301       0.04615027       0.49312525
Pt       5.77470538       4.40091657      10.00000000      -0.00011441       0.04556715       0.49695850
Pt       8.54656396       4.40091657      10.00000000      -0.00121587       0.04620118       0.49334790
Pt       4.38877609       6.80141652      10.00000000      -0.00121459       0.04487295       0.49852482
Pt       7.16063467       6.80141652      10.00000000       0.00078496       0.04482616       0.49871097
Pt       9.93249325       6.80141652      10.00000000      -0.00030622       0.04850720       0.49769898
Pt       1.61754611       0.65203718      12.35625120       0.00166299       0.01225876       0.00262561
Pt       4.38826578       0.65214546      12.35734704       0.01736574       0.01567679      -0.00659462
Pt       7.16248550       0.65212173      12.35735354      -0.01600280       0.01607891      -0.00648561
Pt       3.00317476       3.05371430      12.35507630       0.00779044      -0.00227054       0.01614756
Pt       5.77538385       3.05263912      12.35535546       0.00096031       0.00285444       0.02098817
Pt       8.54760542       3.05364747      12.35508436      -0.00628198      -0.00157377       0.01613650
Pt       4.38910279       5.45434682      12.35596583       0.01196669      -0.01655533       0.00731685
Pt       7.16161383       5.45430442      12.35598841      -0.00952877      -0.01626506       0.00706333
Pt       9.93315847       5.45487834      12.35553369       0.00062683      -0.00840905       0.00558598
C        1.61830604       1.37715189      14.41191593       0.00001440       0.01768713       0.01639901
C        3.00430278       2.20500579      14.42665711       0.00085489       0.01504970       0.00328998
C        3.00433520       3.77835973      14.41334433       0.00128992       0.00550679       0.00390988
C        4.38995976       4.60431348      14.42884363       0.01077112       0.01230504      -0.01212301
C        4.39011028       6.17743996      14.41316188       0.00629817       0.01675562       0.00769763
C        5.77608489       7.00478512      14.42762449      -0.00002211       0.01524793      -0.00988538
C        4.39005019       1.37827265      14.41477436       0.00744514       0.01619461      -0.00588140
C        5.77612225       2.20549545      14.42782170      -0.00025068       0.01615193      -0.01184404
C        5.77614824       3.77670618      14.41542082      -0.00017509       0.01784371      -0.01219140
C        7.16221178       4.60427900      14.42884408      -0.01051453       0.01238269      -0.01211761
C        7.16216935       6.17737746      14.41317770      -0.00672626       0.01688341       0.00767243
C        8.54785278       7.00617832      14.42571684       0.00124776       0.01523019       0.01227162
C        7.16219001       1.37832232      14.41480571      -0.00731350       0.01595729      -0.00598347
C        8.54781800       2.20505116      14.42666920      -0.00065949       0.01495225       0.00315963
C        8.54785550       3.77832588      14.41338630      -0.00110377       0.00557775       0.00383454
C        9.93386097       4.60603714      14.42591320      -0.00002417       0.00331621       0.00754285
C        9.93392678       6.17912102      14.41255397      -0.00036587       0.01066596       0.00429966
C       11.31993304       7.00625118      14.42567041      -0.00148507       0.01517054       0.01257218
C        5.78726643       2.84844708      19.13666429       0.00158174       0.00163419      -0.01328206
O        5.73827927       2.80911038      20.30694294      -0.00034530      -0.00004911      -0.00703917
O        5.83585018       2.88764737      17.96167756      -0.00013550       0.00030699      -0.01137379
