179
Lattice="10.720992125991367 0.0 0.0 -5.360496062995684 9.284647205911675 0.0 0.0 0.0 34.99999747733031" Properties=species:S:1:pos:R:3:forces:R:3 energy=-75885.97169527713 free_energy=-75885.97169527713 pbc="T T T"
Si       1.78683208      -0.00000002       5.05623624      -0.00072428      -0.00014347      -0.06772543
Si       0.89341603       1.54744198      12.64850174      -0.00176429      -0.00081735       0.09519561
Si       0.89341603       1.54744198       2.52836107      -0.00039081      -0.00074099       0.00684839
Si       1.78683208      -0.00000002      10.12062657       0.00088523       0.00241838      -0.06304808
Si      -0.03968664       0.02221928      15.20729840      -0.00666584       0.00383403       0.00778401
Si       0.00000000       0.00000000       7.58805938      -0.00058621       0.00023603      -0.06900481
C        0.00000000       0.00000000       5.68435955      -0.00001517       0.00003008       0.07585911
C        0.00000000       0.00000000      13.27662505      -0.03951888       0.02208706       0.26255128
C        1.78683208      -0.00000002       3.15844319       0.00115931       0.00004037       0.08912446
C        0.89341603       1.54744198      10.75070869       0.00242095      -0.00072942      -0.00615136
C        0.89341603       1.54744198       0.63055283      -0.00434336      -0.00727262      -0.43393177
C        1.78683208      -0.00000002       8.22281833       0.00091454      -0.00061321       0.10165319
Si       1.78683208       3.09488391       5.05623624      -0.00061758      -0.00038824      -0.06753465
Si       3.57366413       0.00000002      12.64850174      -0.00007585      -0.00135266       0.09393525
Si       3.57366413       0.00000002       2.52836107      -0.00103256       0.00005194       0.00740401
Si       1.78683208       3.09488391      10.12062657       0.00616319      -0.00304084      -0.06059370
Si      -0.00978033       3.07081370      15.20739963      -0.00685636      -0.00314986       0.00801079
Si       0.00000000       3.09488393       7.58805938       0.00000103      -0.00109658      -0.06961750
C        0.00000000       3.09488393       5.68435955      -0.00000154       0.00148867       0.07575473
C        0.00000000       3.09488393      13.27662505      -0.00724563      -0.02487542       0.26293746
C        1.78683208       3.09488391       3.15844319       0.00054559       0.00085746       0.08996059
C        3.57366413       0.00000002      10.75070869      -0.00132155       0.00070063      -0.00689596
C        3.57366413       0.00000002       0.63055283      -0.00825144      -0.00010207      -0.43337101
C        1.78683208       3.09488391       8.22281833      -0.00129738       0.00153161       0.10092480
Si      -0.89341603       1.54744195       5.05623624       0.00042115      -0.00035790      -0.06769509
Si      -1.78683208       3.09488395      12.64850174       0.00075513      -0.00248908       0.10248134
Si      -1.78683208       3.09488395       2.52836107       0.00049597      -0.00094951       0.00721143
Si      -0.89341603       1.54744195      10.12062657      -0.00057901      -0.00414230      -0.05914694
Si       2.69621502       1.57441323      15.20744993       0.00061578       0.00134494       0.00797196
Si       2.68024811       1.54744196       7.58805938      -0.00034478       0.00008279      -0.06825045
C        2.68024811       1.54744196       5.68435955       0.00121870       0.00086261       0.07637076
C        2.68024811       1.54744196      13.27662505       0.01814685       0.02959983       0.26652672
C       -0.89341603       1.54744195       3.15844319      -0.00062478       0.00091814       0.08904064
C       -1.78683208       3.09488395      10.75070869      -0.00174012       0.00384868      -0.00535047
C       -1.78683208       3.09488395       0.63055283       0.00426649      -0.00730425      -0.43319540
C       -0.89341603       1.54744195       8.22281833      -0.00063995       0.00222555       0.10052602
C       -0.00080689      -0.00115201      18.94956510       0.00148353      -0.00094848      -0.00045329
C        1.33995095       0.77306883      18.95057091       0.00154909      -0.00023114      -0.00420735
C       -1.34133093       2.32000343      18.95084605      -0.00120559      -0.00015555      -0.00293157
C       -0.00039765       3.09409275      18.94963969      -0.00052065      -0.00052296      -0.00386000
C        2.67936307      -0.00037519      18.95063052       0.00155680       0.00053942      -0.00433565
C        4.01934818       0.77360127      18.94951010      -0.00035584       0.00033373      -0.00252431
C        1.34059574       2.32007253      18.94944883       0.00032165      -0.00056127      -0.00200212
C        2.68052352       3.09362028      18.94657730      -0.00227543      -0.00099887       0.00203991
Si      -0.89341603       4.64232588       5.05623624       0.00027794      -0.00064020      -0.06748323
Si      -1.78683208       6.18976788      12.64850174      -0.00048748       0.00212065       0.02077117
Si      -1.78683208       6.18976788       2.52836107      -0.00043812       0.00024785       0.00735053
Si      -0.89341603       4.64232588      10.12062657      -0.00498948       0.00270197      -0.06114032
Si      -2.66991642       4.66739243      15.20758369       0.00686819       0.00285907       0.00809280
Si      -2.68024811       4.64232589       7.58805938       0.00006608       0.00049314      -0.06821574
C       -2.68024811       4.64232589       5.68435955       0.00001106       0.00000951       0.07660833
C       -2.68024811       4.64232589      13.27662505       0.00858697       0.02703669       0.26489664
C       -0.89341603       4.64232588       3.15844319       0.00005862       0.00066026       0.09021692
C       -1.78683208       6.18976788      10.75070869      -0.00047103      -0.00142568      -0.02322452
C       -1.78683208       6.18976788       0.63055283      -0.00431328       0.00232325      -0.43294061
C       -0.89341603       4.64232588       8.22281833       0.00132026      -0.00030390       0.10136883
Si      -0.89341603       7.73720981       5.05623624      -0.00028025       0.00042809      -0.06742641
Si       0.89341603       4.64232591      12.64850174       0.00253819      -0.00170156       0.17484941
Si       0.89341603       4.64232591       2.52836107       0.00002160      -0.00049802       0.00773079
Si      -0.89341603       7.73720981      10.12062657      -0.00303107      -0.00228520      -0.05899602
Si      -2.64082560       7.71417640      15.20726414       0.00640488      -0.00388931       0.00784675
Si      -2.68024811       7.73720982       7.58805938      -0.00012161      -0.00000334      -0.06883332
C       -2.68024811       7.73720982       5.68435955       0.00128324      -0.00085515       0.07608074
C       -2.68024811       7.73720982      13.27662505       0.04000868      -0.02312502       0.26083662
C       -0.89341603       7.73720981       3.15844319       0.00044711      -0.00034273       0.09018170
C        0.89341603       4.64232591      10.75070869       0.00100453       0.00213890       0.00913513
C        0.89341603       4.64232591       0.63055283       0.00008330      -0.00502085      -0.43350830
C       -0.89341603       7.73720981       8.22281833       0.00141668       0.00040186       0.10083275
Si      -3.57366413       6.18976784       5.05623624      -0.00069060       0.00072351      -0.06754159
Si      -4.46708018       7.73720984      12.64850174      -0.00023166       0.00070140       0.17345562
Si      -4.46708018       7.73720984       2.52836107      -0.00049725       0.00067980       0.00690727
Si      -3.57366413       6.18976784      10.12062657       0.00496223      -0.00258499      -0.06090995
Si      -0.03994565       6.21219974      15.20803482      -0.00614519       0.00366356       0.00664322
Si       0.00000000       6.18976786       7.58805938      -0.00056333       0.00038515      -0.06892073
C        0.00000000       6.18976786       5.68435955      -0.00007559      -0.00001491       0.07619439
C        0.00000000       6.18976786      13.27662505      -0.04095279       0.02319649       0.27507384
C       -3.57366413       6.18976784       3.15844319       0.00059495      -0.00093974       0.09001509
C       -4.46708018       7.73720984      10.75070869       0.00132592       0.00033476       0.00976916
C       -4.46708018       7.73720984       0.63055283      -0.00426623       0.00731813      -0.43401276
C       -3.57366413       6.18976784       8.22281833      -0.00114131       0.00001208       0.10108318
C       -2.68141504       4.64082788      18.94984273      -0.00048440      -0.00044043      -0.00539855
C       -1.34059037       5.41492638      18.95077698       0.00033064      -0.00042809      -0.00221706
C       -4.02192323       6.96198066      18.95064424       0.00029645      -0.00092945      -0.00374738
C       -2.68121519       7.73608178      18.94967541       0.00095722      -0.00026688      -0.00184245
C       -0.00027318       4.64123659      18.95072617      -0.00041935       0.00020260      -0.00411299
C        1.33994840       5.41448440      18.94966738      -0.00116574       0.00022471      -0.00123413
C       -1.34086576       6.96217905      18.95034255       0.00100144      -0.00070063       0.00176069
C       -0.00071760       7.73572181      18.95074322       0.00138711      -0.00013653      -0.00193784
Si       7.14732829      -0.00000002       5.05623624       0.00032679       0.00016095      -0.06758967
Si       6.25391224       1.54744198      12.64850174      -0.00202886       0.00129121       0.17419147
Si       6.25391224       1.54744198       2.52836107       0.00046151      -0.00035584       0.00748294
Si       7.14732829      -0.00000002      10.12062657       0.00572045      -0.00273925      -0.06115960
Si       5.34412645      -0.02030516      15.20734618       0.00085772      -0.00755519       0.00807301
Si       5.36049621       0.00000000       7.58805938      -0.00025043      -0.00016815      -0.06951183
C        5.36049621       0.00000000       5.68435955       0.00008973      -0.00011596       0.07583520
C        5.36049621       0.00000000      13.27662505      -0.01903645      -0.01871763       0.26140097
C        7.14732829      -0.00000002       3.15844319      -0.00095954       0.00013601       0.08989117
C        6.25391224       1.54744198      10.75070869       0.00039852       0.00190159       0.00899809
C        6.25391224       1.54744198       0.63055283       0.00403278      -0.00257779      -0.43327562
C        7.14732829      -0.00000002       8.22281833      -0.00245875       0.00084435       0.10126958
Si       7.14732829       3.09488391       5.05623624       0.00025788      -0.00035507      -0.06745315
Si       8.93416034       0.00000002      12.64850174       0.00218595       0.00072737       0.02094523
Si       8.93416034       0.00000002       2.52836107       0.00085438       0.00006325       0.00707310
Si       7.14732829       3.09488391      10.12062657       0.00066000       0.00343217      -0.06295937
Si       5.31562982       3.11948826      15.20666475      -0.00243406       0.00206460       0.00930765
Si       5.36049621       3.09488393       7.58805938      -0.00084075       0.00045560      -0.06857106
C        5.36049621       3.09488393       5.68435955      -0.00001543      -0.00007585       0.07632654
C        5.36049621       3.09488393      13.27662505      -0.04832954       0.02607690       0.24996034
C        7.14732829       3.09488391       3.15844319      -0.00039158       0.00030468       0.09028043
C        8.93416034       0.00000002      10.75070869      -0.00158663      -0.00124596      -0.02254909
C        8.93416034       0.00000002       0.63055283       0.00843399       0.00008228      -0.43384203
C        7.14732829       3.09488391       8.22281833      -0.00035173      -0.00083355       0.10207434
Si       4.46708018       1.54744195       5.05623624      -0.00010259      -0.00038309      -0.06742281
Si       3.57366413       3.09488395      12.64850174       0.00142542       0.00290149       0.00561503
Si       3.57366413       3.09488395       2.52836107      -0.00053505      -0.00024734       0.00738781
Si       4.46708018       1.54744195      10.12062657      -0.00567931       0.00412122      -0.06053611
Si       8.07981987       1.52403370      15.20802992       0.00673372      -0.00334912       0.00676277
Si       8.04074432       1.54744196       7.58805938       0.00121459      -0.00063558      -0.06903463
C        8.04074432       1.54744196       5.68435955      -0.00134392       0.00061501       0.07610825
C        8.04074432       1.54744196      13.27662505       0.03944741      -0.02358396       0.27602387
C        4.46708018       1.54744195       3.15844319       0.00044789       0.00021752       0.09028763
C        3.57366413       3.09488395      10.75070869      -0.00021237      -0.00071220      -0.02605376
C        3.57366413       3.09488395       0.63055283      -0.00423795      -0.00236336      -0.43310336
C        4.46708018       1.54744195       8.22281833       0.00191187      -0.00113180       0.10099885
C        5.35963377      -0.00064768      18.94977207       0.00114003       0.00054019      -0.00546385
C        6.69964055       0.77306088      18.95094178       0.00086543       0.00109555      -0.00595313
C        4.01954636       2.32041555      18.94656006      -0.00169564      -0.00089809       0.00245592
C        5.35948039       3.09379753      18.94577173      -0.00070011       0.00012367       0.00338434
C        8.03972934      -0.00074266      18.95083355       0.00028642       0.00081041      -0.00286755
C        9.37952212       0.77282128      18.95037748      -0.00013473      -0.00026842       0.00117114
C        6.69934414       2.32023038      18.94984314       0.00033990      -0.00039492      -0.00263024
C        8.03955772       3.09356668      18.95094431      -0.00081530      -0.00093742      -0.00568240
Si       4.46708018       4.64232588       5.05623624       0.00010927       0.00065615      -0.06737113
Si       3.57366413       6.18976788      12.64850174       0.00102973      -0.00383429       0.09085070
Si       3.57366413       6.18976788       2.52836107       0.00059213       0.00087546       0.00718392
Si       4.46708018       4.64232588      10.12062657      -0.00270660      -0.00421532      -0.05836944
Si       2.72428227       4.61596792      15.20669294       0.00279813      -0.00111689       0.00925366
Si       2.68024811       4.64232589       7.58805938       0.00074973      -0.00056873      -0.06860449
C        2.68024811       4.64232589       5.68435955      -0.00010773      -0.00004448       0.07634891
C        2.68024811       4.64232589      13.27662505       0.04714452      -0.02856624       0.25049307
C        4.46708018       4.64232588       3.15844319      -0.00002751      -0.00053325       0.09012436
C        3.57366413       6.18976788      10.75070869      -0.00390499       0.00131152      -0.00760661
C        3.57366413       6.18976788       0.63055283       0.00392068       0.00728676      -0.43315966
C        4.46708018       4.64232588       8.22281833       0.00070757       0.00099219       0.10032625
Si       4.46708018       7.73720981       5.05623624       0.00062606       0.00034273      -0.06771283
Si       6.25391224       4.64232591      12.64850174      -0.00417856      -0.00101199       0.09118777
Si       6.25391224       4.64232591       2.52836107      -0.00000617       0.00062195       0.00765160
Si       4.46708018       7.73720981      10.12062657      -0.00513038       0.00348693      -0.06100071
Si       2.69676832       7.75867512      15.20758248      -0.00060344       0.00725282       0.00805372
Si       2.68024811       7.73720982       7.58805938       0.00091017       0.00065923      -0.06831087
C        2.68024811       7.73720982       5.68435955      -0.00138043      -0.00057824       0.07658545
C        2.68024811       7.73720982      13.27662505       0.01842915       0.02068298       0.26545997
C        4.46708018       7.73720981       3.15844319      -0.00068597      -0.00090091       0.08915249
C        6.25391224       4.64232591      10.75070869       0.00360443      -0.00229934      -0.00777424
C        6.25391224       4.64232591       0.63055283       0.00026714       0.00460382      -0.43324682
C        4.46708018       7.73720981       8.22281833       0.00100839      -0.00211782       0.10087775
Si       1.78683208       6.18976784       5.05623624       0.00031033       0.00004011      -0.06746729
Si       0.89341603       7.73720984      12.64850174      -0.00158946      -0.00032319       0.10246720
Si       0.89341603       7.73720984       2.52836107       0.00037307       0.00028231       0.00730887
Si       1.78683208       6.18976784      10.12062657       0.00326993       0.00227774      -0.06295680
Si       5.34557549       6.16418355      15.20736154      -0.00124519      -0.00208234       0.00794419
Si       5.36049621       6.18976786       7.58805938      -0.00035507       0.00015015      -0.06962445
C        5.36049621       6.18976786       5.68435955       0.00010567      -0.00151387       0.07550019
C        5.36049621       6.18976786      13.27662505      -0.01674457      -0.02917868       0.26515376
C        1.78683208       6.18976784       3.15844319      -0.00055613      -0.00024785       0.09027117
C        0.89341603       7.73720984      10.75070869       0.00262355       0.00024220      -0.00557338
C        0.89341603       7.73720984       0.63055283       0.00407751       0.00254668      -0.43301465
C        1.78683208       6.18976784       8.22281833      -0.00142362      -0.00089603       0.10199643
C        2.68040317       4.64055527      18.94581422      -0.00261815       0.00114363       0.00184400
C        4.02009153       5.41407923      18.94698162      -0.00049057       0.00183320       0.00131718
C        1.33938318       6.96189964      18.95067809      -0.00007662       0.00015864      -0.00351907
C        2.67919834       7.73558569      18.94965350       0.00094488       0.00024605      -0.00347407
C        5.35941905       4.64090242      18.94695763      -0.00029259       0.00160900       0.00198823
C        6.69883051       5.41442717      18.94965505      -0.00083227       0.00024683      -0.00248471
C        4.02002901       6.96119671      18.94958805       0.00102407      -0.00049442      -0.00210008
C        5.35957233       7.73523600      18.95058935       0.00164422      -0.00119762      -0.00374764
C        4.03832369       3.90697306      23.18470721      -0.00140614      -0.00089706       0.02032714
O        4.07914655       3.97924458      24.35313403       0.00118759       0.00176069       0.00399138
O        3.99746280       3.83473487      22.00881432       0.00054045       0.00060884      -0.00652932
