101
Lattice="17.265850017958673 -0.00010359510010775204 0.0 -8.633011338229426 14.952692293502695 0.0 -0.0 0.0 15.000000722551901" Properties=species:S:1:pos:R:3:forces:R:3 energy=-26794.528288428515 free_energy=-26794.528288428515 pbc="T T T"
C        1.20991480       0.67108733       4.97491814      -0.00222632      -0.00507459       0.00331287
C       -0.02326228       1.38305329       4.97500274      -0.00322468      -0.00429966       0.00345222
C       -0.02310343       2.80700593       4.97255445      -0.00322108      -0.00405720       0.00342882
C       -1.25638238       3.51867319       4.97361112      -0.00391965      -0.00243535       0.00397595
C       -1.25643936       4.94256712       4.97265977      -0.00498974      -0.00131461       0.00340414
C       -2.48979773       5.65446401       4.97585913      -0.00420273       0.00333472       0.00149587
C       -2.48984953       7.07833895       4.97732155      -0.00330412       0.00270454      -0.00139842
C       -3.72316991       7.79018060       4.97993214      -0.00164679       0.00170927      -0.00638919
C       -3.72351005       9.21437495       4.97939690      -0.00232119       0.00166787      -0.00384406
C       -4.95677864       9.92674839       4.97892036      -0.00246954       0.00188076       0.00358643
C       -4.95674929      11.35089267       4.97970078      -0.00124827       0.00057001      -0.00430994
C       -6.18997126      12.06305374       4.98009617      -0.00053093      -0.00361111      -0.00590171
C       -6.19008003      13.48736550       4.97851289      -0.00122050      -0.00349207       0.00037975
C       -7.42318977      14.19968368       4.97811405      -0.00304830      -0.00437165       0.00030879
C        3.67594954       0.67098201       4.97316220      -0.00022754      -0.00476425       0.00433231
C        2.44299519       1.38320178       4.97230236      -0.00192807      -0.00488252       0.00341160
C        2.44300037       2.80712679       4.96992658      -0.00103230      -0.00604698      -0.00356663
C        1.21005811       3.51897534       4.97009061      -0.00470049      -0.00393507      -0.00338229
C        1.21009091       4.94269488       4.96720031      -0.00268989      -0.00116959      -0.00594773
C       -0.02312243       5.65455897       4.96951566      -0.00302722       0.00102021       0.00021366
C       -0.02363868       7.07835967       4.96986615      -0.00217695       0.00376847       0.00388494
C       -1.25675705       7.79026175       4.97465915      -0.00419038       0.00151412       0.00194093
C       -1.25688482       9.21418330       4.97616473      -0.00178460       0.00315217       0.00100453
C       -2.49012233       9.92655156       4.97748385      -0.00100736       0.00139277       0.00193321
C       -2.49053325      11.35078735       4.97646861       0.00047360       0.00281587       0.00915261
C       -3.72368616      12.06295532       4.97822628      -0.00188308      -0.00158406       0.00002700
C       -3.72373451      13.48709961       4.97741824      -0.00003574      -0.00366614      -0.00140228
C       -4.95680799      14.19952656       4.97640128      -0.00175555      -0.00363271       0.00208876
C        6.14229852       0.67067986       4.97557597       0.00508127      -0.00213402       0.00115314
C        4.90910072       1.38285128       4.97219704       0.00147710      -0.00518334       0.00353012
C        4.90904892       2.80692132       4.96896142       0.00239447      -0.00205380      -0.00012521
C        3.67596508       3.51899778       4.96674449       0.00015221      -0.00277756      -0.00610406
C        3.67596335       4.94262582       4.96031986       0.00354324       0.00058133      -0.00812829
C        2.44303317       5.65446574       4.96073079      -0.00144265       0.00346559      -0.00812211
C        2.44268440       7.07820083       4.95953945       0.00128761       0.00319922      -0.00755287
C        1.20960574       7.79012880       4.96683945      -0.00097650       0.00372244       0.00388494
C        1.20955567       9.21439395       4.97269430       0.00179232       0.00383197      -0.00120276
C       -0.02390457       9.92657055       4.97617509      -0.00057053       0.00412611      -0.00111020
C       -0.02383033      11.35071483       4.97747521       0.00303956       0.00282153       0.00118862
C       -1.25720942      12.06268943       4.97619754      -0.00017766      -0.00209391       0.00996971
C       -1.25745977      13.48702018       4.97748212       0.00189953      -0.00017612       0.00233173
C       -2.49079052      14.19931419       4.97709191       0.00149895      -0.00324165      -0.00039261
C        8.60856117       0.67037771       4.97986135       0.00253768      -0.00070165      -0.00652237
C        7.37543243       1.38254049       4.97715579       0.00400732      -0.00146759      -0.00184862
C        7.37543416       2.80637400       4.97434491       0.00348847      -0.00261250       0.00142079
C        6.14236413       3.51834168       4.96925494       0.00443567       0.00032010       0.00347176
C        6.14218111       4.94223389       4.96586048       0.00344888       0.00141539       0.00369905
C        4.90912489       5.65415150       4.95860709       0.00184374       0.00308867      -0.00753925
C        4.90961352       7.07832859       4.95721028       0.00153495       0.00412482      -0.01769485
C        3.67584422       7.79068303       4.95776452       0.00210702       0.00352832      -0.01773933
C        3.67620335       9.21494300       4.96558595       0.00225280       0.00242378      -0.01393075
C        2.44291404       9.92682608       4.97352997       0.00245875       0.00309509      -0.00828384
C        2.44254282      11.35089613       4.97807088       0.00132695       0.00358669      -0.00698954
C        1.20927424      12.06274986       4.97887029       0.00245772       0.00107524      -0.00270917
C        1.20911884      13.48671631       4.97851807       0.00335915       0.00000591       0.00497894
C       -0.02404615      14.19899650       4.97926568       0.00319742      -0.00040058      -0.00293594
C       11.07568020       0.67030864       4.97903777       0.00322236      -0.00111637       0.00378209
C        9.84211464       1.38215892       4.97934856       0.00281562      -0.00113771      -0.00374070
C        9.84218716       2.80638436       4.97734572       0.00173369       0.00015684       0.00208311
C        8.60864922       3.51821391       4.97587640       0.00372656       0.00045097       0.00079884
C        8.60913957       4.94218900       4.97571410       0.00391348       0.00200752      -0.00154138
C        7.37567416       5.65429826       4.97180511       0.00220266       0.00395796      -0.00150255
C        7.37600566       7.07863938       4.97249919       0.00124776       0.00412431      -0.00836508
C        6.14287347       7.79077454       4.96475373       0.00046794       0.00384200      -0.01382456
C        6.14271290       9.21477552       4.96719340       0.00118219       0.00267215      -0.00518360
C        4.90950129       9.92678637       4.96759569       0.00112769       0.00255028      -0.00508410
C        4.90952891      11.35079598       4.97346090       0.00143365       0.00022729       0.00322211
C        3.67600479      12.06258238       4.97671206       0.00135574       0.00082532      -0.00013061
C        3.67596681      13.48690105       4.97737162       0.00174218       0.00017535       0.00875769
C        2.44234427      14.19889463       4.97773247       0.00277293      -0.00015092       0.01098272
C       13.54236932       0.67048648       4.98039487      -0.00254873      -0.00219264      -0.00582303
C       12.30900404       1.38239891       4.97986481       0.00136346      -0.00057516      -0.00408857
C       12.30913181       2.80630666       4.97834023      -0.00019875      -0.00222760       0.00024503
C       11.07580970       3.51816039       4.97643926       0.00242455       0.00222092       0.00938941
C       11.07569402       4.94221144       4.97618545      -0.00157711      -0.00083998       0.00974268
C        9.84243061       5.65434488       4.97720759       0.00094617       0.00432280       0.00072377
C        9.84254974       7.07827162       4.97840930      -0.00035610       0.00306038      -0.00296345
C        8.60945381       7.79038779       4.97718687       0.00239190       0.00317943      -0.00671238
C        8.60905842       9.21446128       4.97581769      -0.00012213       0.00201754       0.00046151
C        7.37588653       9.92683644       4.97280653      -0.00079293       0.00159280       0.00365585
C        7.37595731      11.35092030       4.97500102      -0.00252200       0.00067491       0.00611460
C        6.14276642      12.06290352       4.97527209       0.00177869      -0.00181674       0.00593488
C        6.14272153      13.48699947       4.97856814       0.00016455      -0.00272460      -0.00016892
C        4.90946848      14.19910528       4.97918108       0.00098987      -0.00144059      -0.00077622
C       16.00933642       0.67081453       4.97825218      -0.00220061      -0.00457476       0.00069625
C       14.77589517       1.38255776       4.97879778      -0.00224663      -0.00261944       0.00035096
C       14.77600394       2.80668823       4.97679494      -0.00217412      -0.00302593       0.00169487
C       13.54249191       3.51836067       4.97771003      -0.00273025      -0.00164114      -0.00156657
C       13.54282168       4.94224597       4.97734227      -0.00328278      -0.00007970      -0.00033604
C       12.30930792       5.65419467       4.97759435      -0.00096031       0.00169487       0.00222915
C       12.30920260       7.07836658       4.97929158      -0.00172161       0.00246980      -0.00312081
C       11.07578207       7.79017542       4.97829534      -0.00142465       0.00297142       0.00462053
C       11.07593746       9.21428344       4.97739234      -0.00123053       0.00216435       0.01089813
C        9.84254456       9.92663098       4.97673278      -0.00071837       0.00161157       0.00893098
C        9.84255838      11.35099282       4.97871145      -0.00179720      -0.00003342      -0.00064509
C        8.60924144      12.06296223       4.97824354      -0.00249783      -0.00132977      -0.00015941
C        8.60947453      13.48726536       4.97930712      -0.00276599      -0.00403715      -0.00249808
C        7.37607645      14.19936772       4.97939863      -0.00212142      -0.00428654      -0.00229008
C        4.30555567       7.43871005       8.15204001      -0.00768503      -0.01609691       0.01421229
O        3.72442687       6.41701891       8.15032896      -0.00092637      -0.00369056       0.01590613
O        4.88614059       8.46035111       8.16130659       0.01168232       0.01790388       0.01319927
