48
Lattice="8.315575849598094 0.0 0.0 4.157787924799047 7.20149657514819 0.0 0.0 0.0 19.999999365264614" Properties=species:S:1:pos:R:3:forces:R:3 energy=-278732.6668746876 free_energy=-278732.6668746876 pbc="T T T"
Pt       3.00284680       1.20024997       4.65499339      -0.00729191      -0.07916529      -0.42438397
Pt       5.77470538       1.20024997       4.65499339      -0.00794368      -0.08046782      -0.42129582
Pt       8.54656396       1.20024997       4.65499339      -0.00697875      -0.08056115      -0.42141152
Pt       4.38877609       3.60074992       4.65499339      -0.00749914      -0.07988032      -0.42045456
Pt       7.16063467       3.60074992       4.65499339      -0.00777887      -0.07964069      -0.41967423
Pt       9.93249325       3.60074992       4.65499339      -0.00701988      -0.07990269      -0.42079626
Pt       5.77470538       6.00124987       4.65499339      -0.00622798      -0.07874878      -0.42568367
Pt       8.54656396       6.00124987       4.65499339      -0.00873198      -0.07852226      -0.42547206
Pt      11.31842254       6.00124987       4.65499339      -0.00722043      -0.08135510      -0.42177996
Pt       1.61691751       2.00041662       6.91820644       0.01006793       0.07477411       0.41761066
Pt       4.38877609       2.00041662       6.91820644       0.01173580       0.07525902       0.41762377
Pt       7.16063467       2.00041662       6.91820644       0.01030755       0.07476717       0.41360591
Pt       3.00284680       4.40091657       6.91820644       0.01106294       0.07344330       0.41897823
Pt       5.77470538       4.40091657       6.91820644       0.01048547       0.07675489       0.41773356
Pt       8.54656396       4.40091657       6.91820644       0.00997614       0.07656745       0.41760449
Pt       4.38877609       6.80141652       6.91820644       0.01005456       0.07260590       0.41938344
Pt       7.16063467       6.80141652       6.91820644       0.01054667       0.07318465       0.42106494
Pt       9.93249325       6.80141652       6.91820644       0.01143601       0.07343173       0.41904534
Pt       1.64387904       0.68577148       9.27459713       0.00165605       0.00288452       0.00002777
Pt       4.41526991       0.68606119       9.27465846       0.00067337       0.00219392      -0.00039235
Pt       7.18740858       0.68688184       9.27418984       0.00096134       0.00002623       0.00222478
Pt       3.02938661       3.08697847       9.27460280       0.00301128       0.00273848      -0.00035481
Pt       5.80101058       3.08650377       9.27392392       0.00129944      -0.00033142      -0.00052682
Pt       8.57378884       3.08643432       9.27387190       0.00006531       0.00000386       0.00116651
Pt       4.41529660       5.48756946       9.27470861       0.00356021      -0.00026688       0.00097573
Pt       7.18745247       5.48676590       9.27498145      -0.00001748      -0.00174681       0.00042475
Pt       9.95923386       5.48778949       9.27467668       0.00060112      -0.00073765       0.00179772
C        1.64524656       1.41767660      11.33222227      -0.00314857       0.00135060       0.00262715
C        3.03154141       2.24406593      11.34755888      -0.00291512       0.00316297       0.00077904
C        3.03121864       3.81790988      11.33293727      -0.00233199       0.00099142       0.00230345
C        4.41756381       4.64426147      11.34744968      -0.00152132       0.00264515       0.00112383
C        4.41708849       6.21848709      11.33275959      -0.00103076       0.00164551       0.00308352
C        5.80320353       7.04498642      11.34756696      -0.00179154       0.00278605       0.00107549
C        4.41733448       1.41768934      11.33216536      -0.00260144       0.00147556       0.00246466
C        5.80351442       2.24493370      11.34284551      -0.00247726       0.00298094       0.00360006
C        5.80330753       3.81710190      11.33109655      -0.00220524       0.00037487       0.00363220
C        7.18927519       4.64367771      11.34586526      -0.00230757       0.00182445       0.00214070
C        7.18897544       6.21772697      11.33315967      -0.00182600       0.00090117       0.00184682
C        8.57524780       7.04499194      11.34766367      -0.00185248       0.00308378       0.00056101
C        7.18908022       1.41781074      11.32900366      -0.00288375       0.00254231       0.00604364
C        8.57518791       2.24486503      11.34323002      -0.00363657       0.00304264       0.00393790
C        8.57478833       3.81710293      11.33130515      -0.00305370       0.00067980       0.00388777
C        9.96091991       4.64424190      11.34754760      -0.00256827       0.00299379       0.00089757
C        9.96077661       6.21847079      11.33273497      -0.00209468       0.00217901       0.00331210
C       11.34700616       7.04581436      11.34744024      -0.00181468       0.00411017       0.00135446
C        7.16002297       2.81168752      15.50776315       0.00049211       0.00142850      -0.00582663
O        7.15859256       2.82758116      14.33086851       0.00084512       0.00369879      -0.00350956
O        7.16144188       2.79589013      16.67886454      -0.00006711      -0.00120636      -0.00237801
