48
Lattice="8.315575849598094 0.0 0.0 4.157787924799047 7.20149657514819 0.0 0.0 0.0 19.999999365264614" Properties=species:S:1:pos:R:3:forces:R:3 energy=-281861.42577851465 free_energy=-281861.42577851465 pbc="T T T"
Pt       3.00284680       1.20024997       4.65800846      -0.00552324      -0.11460127      -0.70739995
Pt       5.77470538       1.20024997       4.65800846      -0.00518257      -0.11648383      -0.70393668
Pt       8.54656396       1.20024997       4.65800846      -0.00474651      -0.11454779      -0.70787767
Pt       4.38877609       3.60074992       4.65800846      -0.00534507      -0.11419735      -0.70256859
Pt       7.16063467       3.60074992       4.65800846      -0.00526151      -0.11418038      -0.70270383
Pt       9.93249325       3.60074992       4.65800846      -0.00513784      -0.11517257      -0.70360063
Pt       5.77470538       6.00124987       4.65800846      -0.00509413      -0.11038543      -0.70838006
Pt       8.54656396       6.00124987       4.65800846      -0.00520957      -0.11513863      -0.70451003
Pt      11.31842254       6.00124987       4.65800846      -0.00485373      -0.11519493      -0.70424958
Pt       1.61691751       2.00041662       6.92122151       0.00767037       0.11428991       0.70404852
Pt       4.38877609       2.00041662       6.92122151       0.00876001       0.11476890       0.70525848
Pt       7.16063467       2.00041662       6.92122151       0.00572173       0.11418321       0.70548834
Pt       3.00284680       4.40091657       6.92122151       0.00831443       0.11401120       0.70321368
Pt       5.77470538       4.40091657       6.92122151       0.00696666       0.11775087       0.69979592
Pt       8.54656396       4.40091657       6.92122151       0.00666610       0.11375872       0.70361323
Pt       4.38877609       6.80141652       6.92122151       0.00785909       0.11356126       0.70610823
Pt       7.16063467       6.80141652       6.92122151       0.00690495       0.11398189       0.70555339
Pt       9.93249325       6.80141652       6.92122151       0.00726774       0.11238729       0.70518726
Pt       1.64014276       0.84273670       9.33845840       0.00101044      -0.00181597       0.00039441
Pt       4.41146364       0.84213027       9.33812029       0.00076439      -0.00238136       0.00060935
Pt       7.18433045       0.84183732       9.33815300       0.00251145      -0.00106804      -0.00029748
Pt       3.02583170       3.24304860       9.33816144       0.00063018      -0.00165810      -0.00135163
Pt       5.79797465       3.24166201       9.33717876       0.00164216      -0.00207231      -0.00043580
Pt       8.56994213       3.24292417       9.33820646       0.00228854      -0.00062992      -0.00227003
Pt       4.41213923       5.64285196       9.33819730       0.00036638      -0.00162802      -0.00021083
Pt       7.18385191       5.64307319       9.33815064       0.00143930      -0.00240578       0.00011364
Pt       9.95568231       5.64347385       9.33821440       0.00111303      -0.00063866       0.00004782
C        1.64239497       1.55248780      11.43698678      -0.00175761       0.00150769      -0.00155783
C        3.02897140       2.37989877      11.46100157      -0.00221706       0.00069548       0.00503113
C        3.02875470       3.95299092      11.43678294      -0.00268577       0.00123542      -0.00276702
C        4.41487122       4.77989764      11.45719257      -0.00290046       0.00040546      -0.00098679
C        4.41455108       6.35302471      11.43713497      -0.00206151       0.00101224      -0.00208645
C        5.80040117       7.18023156      11.46079548      -0.00174835       0.00028025       0.00522294
C        4.41442746       1.55329946      11.43600751      -0.00219752       0.00080347      -0.00223326
C        5.80041241       2.38131733      11.45361588      -0.00167353      -0.00058390       0.00017561
C        5.80025192       3.95199573      11.42802948      -0.00188719      -0.00005116      -0.00900580
C        7.18600430       4.77980710      11.45764849      -0.00075385       0.00069086      -0.00193038
C        7.18581849       6.35297979      11.43705923      -0.00160668       0.00135497      -0.00161594
C        8.57235120       7.18094807      11.46045074      -0.00170696       0.00062941       0.00482776
C        7.18590933       1.55325819      11.43612618      -0.00093254       0.00106161      -0.00333626
C        8.57180756       2.37977863      11.46101812      -0.00107369       0.00127938       0.00451897
C        8.57164978       3.95295515      11.43689307      -0.00078470       0.00139508      -0.00284570
C        9.95817883       4.78006595      11.46065926      -0.00175349       0.00110455       0.00441150
C        9.95791787       6.35365767      11.43674307      -0.00159408       0.00185299      -0.00042937
C       11.34397227       7.18092357      11.46044513      -0.00142053       0.00078290       0.00433848
C        5.77274825       3.60415376      15.65405008      -0.00024374      -0.00021186       0.00436830
O        5.77982119       3.58928209      16.82381953      -0.00022111      -0.00165528       0.00433642
O        5.76585396       3.61888327      14.47843718      -0.00032422       0.00191727       0.00192421
