179
Lattice="10.720992125991367 0.0 0.0 -5.360496062995684 9.284647205911675 0.0 0.0 0.0 34.99999747733031" Properties=species:S:1:pos:R:3:forces:R:3 energy=-72984.12334399497 free_energy=-72984.12334399497 pbc="T T T"
Si       1.78683208      -0.00000002       5.05623624       0.00008999      -0.00001337      -0.04618653
Si       0.89341603       1.54744198      12.64850174       0.00125753       0.00144573      -0.08109337
Si       0.89341603       1.54744198       2.52836107       0.00014424       0.00003754       0.22346100
Si       1.78683208      -0.00000002      10.12062657      -0.00124699      -0.00089834      -0.07470700
Si       0.00317879       0.00127593      15.17658858      -0.00024271       0.00043734       0.00146270
Si       0.00000000       0.00000000       7.58805938       0.00002057       0.00000360      -0.09325288
C        0.00000000       0.00000000       5.68435955       0.00002365       0.00002108       0.08216372
C        0.00000000       0.00000000      13.27662505       0.00280687       0.00071065       0.01707701
C        1.78683208      -0.00000002       3.15844319       0.00047051      -0.00026559       0.08321555
C        0.89341603       1.54744198      10.75070869      -0.00265724      -0.00017818       0.02978392
C        0.89341603       1.54744198       0.63055283       0.00111534       0.00133337      -0.26646707
C        1.78683208      -0.00000002       8.22281833       0.00094797       0.00023654       0.10969535
Si       1.78683208       3.09488391       5.05623624       0.00003625       0.00009950      -0.04616210
Si       3.57366413       0.00000002      12.64850174      -0.00009127       0.00115674      -0.06729014
Si       3.57366413       0.00000002       2.52836107       0.00000617       0.00008973       0.22335790
Si       1.78683208       3.09488391      10.12062657      -0.00062221       0.00151541      -0.07422183
Si       0.00668742       3.09389387      15.17654282      -0.00125110       0.00017304       0.00086749
Si       0.00000000       3.09488393       7.58805938       0.00020183       0.00006865      -0.09325648
C        0.00000000       3.09488393       5.68435955      -0.00008613       0.00058724       0.08215806
C        0.00000000       3.09488393      13.27662505       0.00722840       0.00027562       0.01498876
C        1.78683208       3.09488391       3.15844319       0.00014578       0.00069471       0.08313816
C        3.57366413       0.00000002      10.75070869       0.00172830      -0.00249654       0.03304999
C        3.57366413       0.00000002       0.63055283       0.00143056       0.00030776      -0.26637066
C        1.78683208       3.09488391       8.22281833       0.00041369       0.00007096       0.10933899
Si      -0.89341603       1.54744195       5.05623624      -0.00003471       0.00006608      -0.04616776
Si      -1.78683208       3.09488395      12.64850174      -0.00079267       0.00009102      -0.06560093
Si      -1.78683208       3.09488395       2.52836107      -0.00012316      -0.00003342       0.22342192
Si      -0.89341603       1.54744195      10.12062657       0.00227337       0.00005862      -0.07490652
Si       2.67675169       1.55127330      15.17797629       0.00015581      -0.00005862      -0.00695021
Si       2.68024811       1.54744196       7.58805938      -0.00001054       0.00016172      -0.09348094
C        2.68024811       1.54744196       5.68435955       0.00057156       0.00029182       0.08174385
C        2.68024811       1.54744196      13.27662505      -0.00177638       0.00411274       0.04286955
C       -0.89341603       1.54744195       3.15844319       0.00000489       0.00047051       0.08331531
C       -1.78683208       3.09488395      10.75070869       0.00189876       0.00282719       0.03329759
C       -1.78683208       3.09488395       0.63055283      -0.00100993       0.00127270      -0.26629995
C       -0.89341603       1.54744195       8.22281833      -0.00100633       0.00043503       0.10957939
C       -0.00006755       0.00051749      18.62375084      -0.00094000      -0.00165399       0.00364737
C        1.34064688       0.77475413      18.62396364      -0.00002494      -0.00175812      -0.00145190
C       -1.34072347       2.32126360      18.62605522      -0.00229728      -0.00122102      -0.00433951
C        0.00006807       3.09549441      18.62378008      -0.00113360      -0.00249963      -0.01123109
C        2.67992225       0.00072871      18.62589116       0.00129661       0.00011853      -0.01524587
C        4.01944093       0.77355690      18.62413442       0.00014655       0.00148481      -0.02223516
C        1.34072784       2.32138598      18.61961196      -0.00044506      -0.00293029       0.00592922
C        2.67960379       3.09438221      18.60949386      -0.00089732      -0.00171801       0.01785605
Si      -0.89341603       4.64232588       5.05623624      -0.00005322      -0.00000051      -0.04617290
Si      -1.78683208       6.18976788      12.64850174      -0.00038901      -0.00051525      -0.06889811
Si      -1.78683208       6.18976788       2.52836107       0.00014758       0.00002237       0.22334402
Si      -0.89341603       4.64232588      10.12062657       0.00010182      -0.00122462      -0.07498134
Si      -2.68690143       4.64307060      15.17653277       0.00109272      -0.00015170       0.00104130
Si      -2.68024811       4.64232589       7.58805938      -0.00009050      -0.00001903      -0.09333284
C       -2.68024811       4.64232589       5.68435955      -0.00004088       0.00003831       0.08209815
C       -2.68024811       4.64232589      13.27662505      -0.00666867       0.00031573       0.01505998
C       -0.89341603       4.64232588       3.15844319      -0.00011853       0.00006196       0.08309985
C       -1.78683208       6.18976788      10.75070869      -0.00195815      -0.00024837       0.03272963
C       -1.78683208       6.18976788       0.63055283       0.00121330      -0.00051885      -0.26644805
C       -0.89341603       4.64232588       8.22281833      -0.00005888       0.00069086       0.10957605
Si      -0.89341603       7.73720981       5.05623624      -0.00002160       0.00002725      -0.04618215
Si       0.89341603       4.64232591      12.64850174       0.00144342      -0.00053865      -0.07949003
Si       0.89341603       4.64232591       2.52836107      -0.00009205       0.00014218       0.22341164
Si      -0.89341603       7.73720981      10.12062657      -0.00009847       0.00123182      -0.07492272
Si      -2.68319320       7.73625631      15.17657124       0.00017278      -0.00049031       0.00128221
Si      -2.68024811       7.73720982       7.58805938      -0.00002160      -0.00009205      -0.09341692
C       -2.68024811       7.73720982       5.68435955       0.00053428      -0.00022806       0.08208144
C       -2.68024811       7.73720982      13.27662505      -0.00216050      -0.00099245       0.01694408
C       -0.89341603       7.73720981       3.15844319       0.00007199       0.00006736       0.08311091
C        0.89341603       4.64232591      10.75070869       0.00109812      -0.00168304       0.03023052
C        0.89341603       4.64232591       0.63055283      -0.00006839       0.00124570      -0.26642748
C       -0.89341603       7.73720981       8.22281833       0.00034324      -0.00051345       0.10968429
Si      -3.57366413       6.18976784       5.05623624       0.00008356      -0.00004268      -0.04618293
Si      -4.46708018       7.73720984      12.64850174       0.00001697      -0.00095902      -0.07546368
Si      -4.46708018       7.73720984       2.52836107      -0.00001311      -0.00016172       0.22331111
Si      -3.57366413       6.18976784      10.12062657       0.00078264      -0.00080167      -0.07449900
Si       0.00448663       6.19026139      15.17831077      -0.00047668      -0.00021443      -0.00740863
Si       0.00000000       6.18976786       7.58805938       0.00011930      -0.00000746      -0.09344674
C        0.00000000       6.18976786       5.68435955      -0.00000746       0.00003368       0.08189349
C        0.00000000       6.18976786      13.27662505       0.00460845       0.00005374       0.04804466
C       -3.57366413       6.18976784       3.15844319       0.00056564      -0.00038772       0.08318213
C       -4.46708018       7.73720984      10.75070869       0.00113360       0.00161542       0.03110906
C       -4.46708018       7.73720984       0.63055283       0.00070088      -0.00169101      -0.26633261
C       -3.57366413       6.18976784       8.22281833       0.00007251      -0.00020826       0.10949428
C       -2.68054651       4.64195437      18.62383482       0.00042603       0.00137965      -0.01147612
C       -1.33986573       5.41629437      18.62609280       0.00207591      -0.00007199      -0.00484062
C       -4.02149959       6.96282538      18.62389917       0.00137503       0.00034299      -0.00036458
C       -2.68073438       7.73690248      18.62360799       0.00259553       0.00031496       0.00492289
C       -0.00000767       4.64330745      18.62544562       0.00056719      -0.00187125      -0.01477587
C        1.33918705       5.41642884      18.61996937       0.00033553      -0.00202603      -0.00124699
C       -1.34005535       6.96273831      18.62411872       0.00336069      -0.00003445       0.01663015
C       -0.00031152       7.73613339      18.62455000       0.00178357      -0.00023037       0.00874021
Si       7.14732829      -0.00000002       5.05623624      -0.00004525      -0.00002545      -0.04616004
Si       6.25391224       1.54744198      12.64850174      -0.00004859       0.00085283      -0.07812220
Si       6.25391224       1.54744198       2.52836107       0.00010182       0.00001028       0.22333631
Si       7.14732829      -0.00000002      10.12062657      -0.00149381      -0.00126318      -0.07458256
Si       5.36455547      -0.00041655      15.17655906       0.00024425      -0.00000977       0.00099270
Si       5.36049621       0.00000000       7.58805938       0.00003240       0.00007919      -0.09327937
C        5.36049621       0.00000000       5.68435955       0.00004988       0.00001440       0.08207193
C        5.36049621       0.00000000      13.27662505       0.00296397       0.00088754       0.01591821
C        7.14732829      -0.00000002       3.15844319      -0.00067903      -0.00031239       0.08303378
C        6.25391224       1.54744198      10.75070869      -0.00309278       0.00029568       0.03048043
C        6.25391224       1.54744198       0.63055283      -0.00056281       0.00048285      -0.26648790
C        7.14732829      -0.00000002       8.22281833      -0.00006325       0.00034813       0.10950585
Si       7.14732829       3.09488391       5.05623624      -0.00002751       0.00006428      -0.04615464
Si       8.93416034       0.00000002      12.64850174      -0.00091814       0.00033913      -0.06915136
Si       8.93416034       0.00000002       2.52836107      -0.00012444       0.00012496       0.22346666
Si       7.14732829       3.09488391      10.12062657      -0.00183525       0.00177766      -0.07447329
Si       5.36281112       3.09722375      15.17599085      -0.00013627       0.00004217       0.00210265
Si       5.36049621       3.09488393       7.58805938       0.00000103       0.00008536      -0.09312484
C        5.36049621       3.09488393       5.68435955       0.00001723      -0.00004602       0.08199788
C        5.36049621       3.09488393      13.27662505       0.00083355       0.00251865       0.00550653
C        7.14732829       3.09488391       3.15844319      -0.00034401       0.00040341       0.08316336
C        8.93416034       0.00000002      10.75070869       0.00078753      -0.00228391       0.03267872
C        8.93416034       0.00000002       0.63055283      -0.00181597       0.00011647      -0.26647787
C        7.14732829       3.09488391       8.22281833       0.00029671      -0.00043837       0.10955213
Si       4.46708018       1.54744195       5.05623624       0.00003445       0.00001311      -0.04616467
Si       3.57366413       3.09488395      12.64850174      -0.00003445       0.00094565      -0.07668007
Si       3.57366413       3.09488395       2.52836107      -0.00003137      -0.00010824       0.22347926
Si       4.46708018       1.54744195      10.12062657       0.00183191       0.00085772      -0.07476948
Si       8.03649477       1.54717030      15.17832052       0.00039106       0.00024991      -0.00768837
Si       8.04074432       1.54744196       7.58805938      -0.00015452       0.00005554      -0.09360255
C        8.04074432       1.54744196       5.68435955      -0.00049391       0.00030030       0.08180942
C        8.04074432       1.54744196      13.27662505      -0.00467092       0.00050342       0.04826295
C        4.46708018       1.54744195       3.15844319       0.00058081       0.00009307       0.08311425
C        3.57366413       3.09488395      10.75070869       0.00190750       0.00220472       0.03103707
C        3.57366413       3.09488395       0.63055283       0.00067877       0.00021212      -0.26652338
C        4.46708018       1.54744195       8.22281833      -0.00025480      -0.00009667       0.10959739
C        5.36035099      -0.00035830      18.62411066       0.00057798       0.00173858      -0.01228499
C        6.70126697       0.77416509      18.62376389      -0.00086338       0.00241478      -0.00074845
C        4.01961157       2.32088253      18.61312896      -0.00091531       0.00097419       0.00432254
C        5.36125308       3.09445010      18.60796527      -0.00119016       0.00284287       0.01304192
C        8.04083858       0.00096906      18.62452186      -0.00138428       0.00096082       0.00948583
C        9.38029539       0.77446319      18.62412919      -0.00257547      -0.00057567       0.01709655
C        6.70130420       2.32058120      18.62007457      -0.00128967       0.00276085      -0.00168742
C        8.04072906       3.09405043      18.62549294      -0.00171801       0.00111123      -0.01466017
Si       4.46708018       4.64232588       5.05623624      -0.00007790      -0.00006428      -0.04613459
Si       3.57366413       6.18976788      12.64850174      -0.00024554      -0.00165502      -0.07062975
Si       3.57366413       6.18976788       2.52836107       0.00009590      -0.00005914       0.22352811
Si       4.46708018       4.64232588      10.12062657      -0.00026457      -0.00179874      -0.07446969
Si       2.67786430       4.64012950      15.17593197       0.00023371      -0.00000360       0.00213864
Si       2.68024811       4.64232589       7.58805938       0.00001440      -0.00004859      -0.09326394
C        2.68024811       4.64232589       5.68435955      -0.00004577       0.00001311       0.08201305
C        2.68024811       4.64232589      13.27662505      -0.00106032      -0.00216178       0.00451974
C        4.46708018       4.64232588       3.15844319      -0.00014295      -0.00054122       0.08307440
C        3.57366413       6.18976788      10.75070869      -0.00297451       0.00007713       0.03240130
C        3.57366413       6.18976788       0.63055283      -0.00063738      -0.00144676      -0.26652647
C        4.46708018       4.64232588       8.22281833       0.00007559       0.00021057       0.10935365
Si       4.46708018       7.73720981       5.05623624      -0.00009102      -0.00003574      -0.04616184
Si       6.25391224       4.64232591      12.64850174      -0.00062504      -0.00046897      -0.08485463
Si       6.25391224       4.64232591       2.52836107      -0.00004345       0.00008099       0.22346640
Si       4.46708018       7.73720981      10.12062657      -0.00064355       0.00085592      -0.07495331
Si       2.67606323       7.73698261      15.17652049      -0.00023628       0.00034196       0.00121176
Si       2.68024811       7.73720982       7.58805938      -0.00018718      -0.00005656      -0.09333567
C        2.68024811       7.73720982       5.68435955      -0.00044249      -0.00033964       0.08205907
C        2.68024811       7.73720982      13.27662505      -0.00399858      -0.00156015       0.01530449
C        4.46708018       7.73720981       3.15844319      -0.00037461      -0.00015170       0.08333100
C        6.25391224       4.64232591      10.75070869       0.00154806      -0.00256365       0.02891103
C        6.25391224       4.64232591       0.63055283      -0.00011390      -0.00069291      -0.26647016
C        4.46708018       7.73720981       8.22281833      -0.00002648      -0.00068109       0.10961898
Si       1.78683208       6.18976784       5.05623624       0.00006299      -0.00004242      -0.04615542
Si       0.89341603       7.73720984      12.64850174       0.00046357      -0.00068134      -0.07990037
Si       0.89341603       7.73720984       2.52836107      -0.00009873      -0.00014192       0.22345020
Si       1.78683208       6.18976784      10.12062657       0.00119659      -0.00028539      -0.07449360
Si       5.36362848       6.18607415      15.17800982       0.00007456      -0.00024940      -0.00708853
Si       5.36049621       6.18976786       7.58805938       0.00003291      -0.00019669      -0.09342232
C        5.36049621       6.18976786       5.68435955      -0.00005476      -0.00057953       0.08180145
C        5.36049621       6.18976786      13.27662505       0.00169127      -0.00467067       0.04334006
C        1.78683208       6.18976784       3.15844319      -0.00009050      -0.00007739       0.08315899
C        0.89341603       7.73720984      10.75070869       0.00062324       0.00266675       0.03005234
C        0.89341603       7.73720984       0.63055283      -0.00094411      -0.00063918      -0.26634778
C        1.78683208       6.18976784       8.22281833      -0.00064586      -0.00003445       0.10945495
C        2.67934120       4.64264057      18.60781911      -0.00005194      -0.00171904       0.01395492
C        4.02080987       5.41634386      18.61312544       0.00025788       0.00018152       0.00470949
C        1.33911952       6.96300538      18.62377066       0.00075359      -0.00130535      -0.00119762
C        2.68001806       7.73739349      18.62412733      -0.00040366      -0.00055073      -0.01242563
C        5.36109244       4.64280584      18.60960683      -0.00023500       0.00245129       0.01732718
C        6.69962652       5.41584786      18.61964128       0.00033347       0.00231631       0.00607783
C        4.02083723       6.96344618      18.62418713       0.00035147      -0.00064792      -0.02279951
C        5.36042235       7.73661824      18.62597747      -0.00002083      -0.00088780      -0.01575829
C        4.02350491       3.86801312      21.81874446      -0.00413382       0.00097805       0.01836230
O        5.19409020       3.77629132      21.81184921      -0.00320617      -0.00019360       0.02416348
O        2.85288200       3.95987971      21.81123779       0.00753076      -0.00105364       0.02416117
