48
Lattice="8.315575849598094 0.0 0.0 4.157787924799047 7.20149657514819 0.0 0.0 0.0 19.999999365264614" Properties=species:S:1:pos:R:3:forces:R:3 energy=-280419.36903646693 free_energy=-280419.36903646693 pbc="T T T"
Pt       3.00284680       1.20024997       5.74156598      -0.00764312      -0.07469569      -0.42933978
Pt       5.77470538       1.20024997       5.74156598      -0.00735978      -0.07315251      -0.43135706
Pt       8.54656396       1.20024997       5.74156598      -0.00897624      -0.07092928      -0.43428581
Pt       4.38877609       3.60074992       5.74156598      -0.00742123      -0.07276762      -0.42965782
Pt       7.16063467       3.60074992       5.74156598      -0.00755519      -0.07236164      -0.43069449
Pt       9.93249325       3.60074992       5.74156598      -0.00883637      -0.07200297      -0.42971901
Pt       5.77470538       6.00124987       5.74156598      -0.00728779      -0.07490472      -0.42839567
Pt       8.54656396       6.00124987       5.74156598      -0.00833243      -0.07339985      -0.43161623
Pt      11.31842254       6.00124987       5.74156598      -0.00827690      -0.07318979      -0.42917368
Pt       1.61691751       2.00041662       8.00477904       0.01240017       0.07062255       0.43164991
Pt       4.38877609       2.00041662       8.00477904       0.01157742       0.06917759       0.42768913
Pt       7.16063467       2.00041662       8.00477904       0.01370527       0.07132600       0.42947579
Pt       3.00284680       4.40091657       8.00477904       0.01148743       0.07223874       0.42701396
Pt       5.77470538       4.40091657       8.00477904       0.01212069       0.07246140       0.42386847
Pt       8.54656396       4.40091657       8.00477904       0.01411253       0.07304607       0.42956963
Pt       4.38877609       6.80141652       8.00477904       0.01254595       0.07330447       0.42976401
Pt       7.16063467       6.80141652       8.00477904       0.01185767       0.07052047       0.42911686
Pt       9.93249325       6.80141652       8.00477904       0.01304835       0.07049502       0.43199367
Pt       1.64573383       0.66586621      10.35377633      -0.00143930       0.00386437       0.00112640
Pt       4.41785717       0.66599339      10.35352395      -0.00175658       0.00285058       0.00271508
Pt       7.18982568       0.66567790      10.35336610      -0.00159151       0.00311489       0.00190776
Pt       3.03160224       3.06614458      10.35286544      -0.00180311       0.00264052       0.00507536
Pt       5.80417678       3.06657714      10.35254376      -0.00295677       0.00366254       0.00352653
Pt       8.57568835       3.06635962      10.35326057      -0.00233250       0.00324473       0.00502316
Pt       4.41759250       5.46636820      10.35260058      -0.00244923       0.00205508       0.00357255
Pt       7.18990064       5.46764236      10.35348709      -0.00132180       0.00293466       0.00238573
Pt       9.96132408       5.46691770      10.35371635      -0.00211190       0.00192421       0.00119839
C        1.64603868       1.40260091      12.40296418      -0.00123516      -0.00183371       0.00039132
C        3.03250433       2.23048411      12.41529559      -0.00181906      -0.00146733      -0.00234613
C        3.03213112       3.80279702      12.40100703      -0.00256622       0.00029105       0.00156092
C        4.41772260       4.63146724      12.40931000      -0.00282719       0.00179103      -0.00403123
C        4.41805072       6.20316045      12.40200258      -0.00213376       0.00130226       0.00314549
C        5.80419570       7.03095877      12.41522030      -0.00198592       0.00001620      -0.00056179
C        4.41811961       1.40217684      12.40251078      -0.00218569      -0.00239601       0.00218415
C        5.80457632       2.22837144      12.41381438      -0.00209468      -0.00153058      -0.00532964
C        5.80419311       3.80343334      12.39755585      -0.00205663      -0.00004834      -0.00393764
C        7.19093038       4.62998479      12.41560321      -0.00060138       0.00079473      -0.00702605
C        7.19020841       6.20344443      12.40285882      -0.00170696       0.00020697       0.00027125
C        8.57649127       7.03040707      12.41601739      -0.00223969      -0.00083458      -0.00267858
C        7.19061557       1.40154328      12.40191980      -0.00151541      -0.00135780       0.00056281
C        8.57612705       2.22975158      12.41516515      -0.00078136      -0.00072942      -0.00402738
C        8.57608485       3.80172367      12.40257883       0.00008665       0.00007765       0.00082918
C        9.96235919       4.62980012      12.41511458      -0.00141231      -0.00001491      -0.00042629
C        9.96221141       6.20274448      12.40314864      -0.00193655      -0.00074356      -0.00134546
C       11.34842846       7.03055261      12.41545434      -0.00161568       0.00028514      -0.00229188
C        5.87175787       3.44529580      15.64505658       0.00541320      -0.00345659       0.00419733
O        6.90445305       2.88646612      15.65667141       0.00059110       0.00310332      -0.00138917
O        4.83914716       4.00428969      15.62758425       0.00121870      -0.00553533       0.00981621
