179
Lattice="10.720992125991367 0.0 0.0 -5.360496062995684 9.284647205911675 0.0 0.0 0.0 34.99999747733031" Properties=species:S:1:pos:R:3:forces:R:3 energy=-73584.237846661 free_energy=-73584.237846661 pbc="T T T"
Si       1.78683208      -0.00000002       5.05623624       0.00021906      -0.00001080      -0.02925941
Si       0.89341603       1.54744198      12.64850174      -0.00113000      -0.00017406      -0.10136137
Si       0.89341603       1.54744198       2.52836107       0.00025325       0.00021160       0.24271702
Si       1.78683208      -0.00000002      10.12062657      -0.00009899      -0.00114851      -0.08166132
Si      -0.00074987      -0.00109893      15.16992893      -0.00188050       0.00315577      -0.00604646
Si       0.00000000       0.00000000       7.58805938      -0.00020980      -0.00017124      -0.10186942
C        0.00000000       0.00000000       5.68435955      -0.00013833       0.00013961       0.09279111
C        0.00000000       0.00000000      13.27662505      -0.00213042      -0.00290072      -0.04977193
C        1.78683208      -0.00000002       3.15844319       0.00207154       0.00026611       0.09169351
C        0.89341603       1.54744198      10.75070869      -0.00114286       0.00165990       0.03790243
C        0.89341603       1.54744198       0.63055283       0.00212913       0.00382992      -0.20119628
C        1.78683208      -0.00000002       8.22281833       0.00183243       0.00004422       0.10858257
Si       1.78683208       3.09488391       5.05623624       0.00012573       0.00021752      -0.02929052
Si       3.57366413       0.00000002      12.64850174       0.00055793       0.00018563      -0.10902506
Si       3.57366413       0.00000002       2.52836107       0.00027716       0.00005296       0.24290369
Si       1.78683208       3.09488391      10.12062657       0.00052425       0.00153983      -0.08228533
Si      -0.00705946       3.09507097      15.17015386       0.00336352      -0.00204454      -0.00636142
Si       0.00000000       3.09488393       7.58805938       0.00004165       0.00013010      -0.10191159
C        0.00000000       3.09488393       5.68435955       0.00012933       0.00194607       0.09292841
C        0.00000000       3.09488393      13.27662505      -0.00562069       0.00265698      -0.04489172
C        1.78683208       3.09488391       3.15844319       0.00108552       0.00178435       0.09133895
C        3.57366413       0.00000002      10.75070869       0.00357126      -0.00222400       0.03634100
C        3.57366413       0.00000002       0.63055283       0.00450740      -0.00008150      -0.20166422
C        1.78683208       3.09488391       8.22281833       0.00061655       0.00091351       0.10827352
Si      -0.89341603       1.54744195       5.05623624      -0.00012676       0.00016918      -0.02925710
Si      -1.78683208       3.09488395      12.64850174      -0.00127450      -0.00032499      -0.10860494
Si      -1.78683208       3.09488395       2.52836107      -0.00020312       0.00023114       0.24268000
Si      -0.89341603       1.54744195      10.12062657       0.00070860      -0.00003754      -0.08187652
Si       2.68023064       1.54217552      15.17089128       0.00463133       0.00670467      -0.00888470
Si       2.68024811       1.54744196       7.58805938       0.00041086       0.00021494      -0.10200363
C        2.68024811       1.54744196       5.68435955       0.00194427       0.00120713       0.09294487
C        2.68024811       1.54744196      13.27662505       0.00165733      -0.00415850      -0.02506440
C       -0.89341603       1.54744195       3.15844319      -0.00074562       0.00177535       0.09143923
C       -1.78683208       3.09488395      10.75070869      -0.00003728       0.00270969       0.03647470
C       -1.78683208       3.09488395       0.63055283      -0.00222889       0.00404126      -0.20157886
C       -0.89341603       1.54744195       8.22281833      -0.00122642       0.00139071       0.10818739
C        0.04065499       0.08111579      18.63403489      -0.00029619       0.00076876      -0.00558084
C        1.38112967       0.85539556      18.63728803      -0.00033707       0.00105338      -0.01027001
C       -1.30009187       2.40219889      18.63869134      -0.00061269      -0.00015144      -0.01392587
C        0.04084751       3.17651871      18.63540584       0.00009616       0.00050316      -0.00893895
C        2.72088128       0.08188351      18.63871097      -0.00045097       0.00021314      -0.01371118
C        4.06031668       0.85568954      18.63737363      -0.00056127      -0.00042063      -0.01014326
C        1.38149908       2.40231598      18.63456034       0.00009744       0.00097008      -0.00330412
C        2.72099613       3.17598743      18.62766432       0.00056950       0.00089500       0.01171472
Si      -0.89341603       4.64232588       5.05623624       0.00001568       0.00019309      -0.02932626
Si      -1.78683208       6.18976788      12.64850174      -0.00101790      -0.00077622      -0.10086361
Si      -1.78683208       6.18976788       2.52836107       0.00026868      -0.00011724       0.24263423
Si      -0.89341603       4.64232588      10.12062657      -0.00095079      -0.00157866      -0.08169423
Si      -2.67925566       4.63837740      15.16996875      -0.00115314       0.00156400      -0.00609686
Si      -2.68024811       4.64232589       7.58805938      -0.00013550      -0.00017921      -0.10176915
C       -2.68024811       4.64232589       5.68435955      -0.00014450       0.00014938       0.09291890
C       -2.68024811       4.64232589      13.27662505      -0.00151772      -0.00377104      -0.04886150
C       -0.89341603       4.64232588       3.15844319       0.00029311       0.00137837       0.09142200
C       -1.78683208       6.18976788      10.75070869      -0.00065537      -0.00013601       0.03837886
C       -1.78683208       6.18976788       0.63055283       0.00221295      -0.00133466      -0.20174392
C       -0.89341603       4.64232588       8.22281833       0.00020440       0.00120585       0.10873761
Si      -0.89341603       7.73720981       5.05623624       0.00019746      -0.00010747      -0.02932369
Si       0.89341603       4.64232591      12.64850174       0.00189310       0.00000103      -0.09626879
Si       0.89341603       4.64232591       2.52836107      -0.00010464       0.00021237       0.24274942
Si      -0.89341603       7.73720981      10.12062657      -0.00049828       0.00164808      -0.08211306
Si      -2.68037760       7.74178341      15.17018915       0.00529467      -0.00148867      -0.00641876
Si      -2.68024811       7.73720982       7.58805938       0.00025120      -0.00027819      -0.10191750
C       -2.68024811       7.73720982       5.68435955       0.00208208      -0.00113591       0.09294049
C       -2.68024811       7.73720982      13.27662505       0.00015812       0.00170618      -0.04409879
C       -0.89341603       7.73720981       3.15844319       0.00107009      -0.00035198       0.09127519
C        0.89341603       4.64232591      10.75070869       0.00211576      -0.00122667       0.03948263
C        0.89341603       4.64232591       0.63055283      -0.00005348       0.00256827      -0.20183623
C       -0.89341603       7.73720981       8.22281833       0.00086646      -0.00123927       0.10829795
Si      -3.57366413       6.18976784       5.05623624       0.00005811      -0.00019438      -0.02928589
Si      -4.46708018       7.73720984      12.64850174      -0.00231605      -0.00179437      -0.09666114
Si      -4.46708018       7.73720984       2.52836107       0.00011313      -0.00033193       0.24289186
Si      -3.57366413       6.18976784      10.12062657       0.00066874      -0.00141205      -0.08221334
Si      -0.00171100       6.18683885      15.17097846       0.00318920       0.00697900      -0.00902252
Si       0.00000000       6.18976786       7.58805938       0.00025120       0.00007713      -0.10227308
C        0.00000000       6.18976786       5.68435955       0.00004602       0.00020337       0.09282479
C        0.00000000       6.18976786      13.27662505      -0.00051371      -0.00444878      -0.02303117
C       -3.57366413       6.18976784       3.15844319       0.00115417      -0.00154498       0.09137315
C       -4.46708018       7.73720984      10.75070869       0.00181931      -0.00112769       0.03918695
C       -4.46708018       7.73720984       0.63055283       0.00235333      -0.00368542      -0.20119988
C       -3.57366413       6.18976784       8.22281833       0.00077879      -0.00153829       0.10832160
C       -2.63976656       4.72413876      18.63362678      -0.00004988      -0.00055407      -0.00474574
C       -1.29900429       5.49793975      18.63778839       0.00025865      -0.00074845      -0.01110562
C       -3.98103681       7.04432017      18.63165863       0.00000746       0.00028591       0.00366536
C       -2.63969980       7.81865953      18.63685667      -0.00028976      -0.00029208      -0.01236701
C        0.04097784       4.72441817      18.63519292       0.00056564      -0.00017612      -0.00548468
C        1.38061921       5.49780316      18.62878557       0.00109863      -0.00015735       0.00857951
C       -1.29886044       7.04460167      18.63949160      -0.00005168      -0.00104541      -0.01573772
C        0.04089764       7.81763737      18.63853473      -0.00022471      -0.00154420      -0.01294628
Si       7.14732829      -0.00000002       5.05623624      -0.00021520      -0.00001157      -0.02928512
Si       6.25391224       1.54744198      12.64850174      -0.00123850       0.00038901      -0.10190645
Si       6.25391224       1.54744198       2.52836107      -0.00001980       0.00004654       0.24270725
Si       7.14732829      -0.00000002      10.12062657      -0.00045509      -0.00108218      -0.08159293
Si       5.36118384      -0.00051563      15.17010102      -0.00504168      -0.00063018      -0.00650618
Si       5.36049621       0.00000000       7.58805938      -0.00007765       0.00009642      -0.10188510
C        5.36049621       0.00000000       5.68435955      -0.00015812       0.00003445       0.09291555
C        5.36049621       0.00000000      13.27662505       0.00245360       0.00158174      -0.04670795
C        7.14732829      -0.00000002       3.15844319      -0.00172958       0.00029851       0.09160249
C        6.25391224       1.54744198      10.75070869      -0.00376101       0.00207282       0.03832795
C        6.25391224       1.54744198       0.63055283      -0.00225691       0.00131820      -0.20185397
C        7.14732829      -0.00000002       8.22281833      -0.00199415       0.00008973       0.10852472
Si       7.14732829       3.09488391       5.05623624      -0.00018512       0.00003908      -0.02927972
Si       8.93416034       0.00000002      12.64850174      -0.00034299      -0.00257316      -0.10887825
Si       8.93416034       0.00000002       2.52836107      -0.00037230       0.00004705       0.24306361
Si       7.14732829       3.09488391      10.12062657      -0.00130432       0.00208542      -0.08189349
Si       5.35656971       3.10318068      15.16941422       0.00214121      -0.00230114      -0.00530007
Si       5.36049621       3.09488393       7.58805938      -0.00003574       0.00018692      -0.10177506
C        5.36049621       3.09488393       5.68435955       0.00018615      -0.00020183       0.09282608
C        5.36049621       3.09488393      13.27662505      -0.00384251       0.00905491      -0.05990002
C        7.14732829       3.09488391       3.15844319      -0.00084255       0.00067106       0.09128470
C        8.93416034       0.00000002      10.75070869      -0.00070423      -0.00071477       0.03634974
C        8.93416034       0.00000002       0.63055283      -0.00450123      -0.00015067      -0.20136520
C        7.14732829       3.09488391       8.22281833      -0.00070217      -0.00026071       0.10801513
Si       4.46708018       1.54744195       5.05623624       0.00020723       0.00008922      -0.02930569
Si       3.57366413       3.09488395      12.64850174       0.00211962       0.00319897      -0.10847639
Si       3.57366413       3.09488395       2.52836107       0.00012136      -0.00001003       0.24267743
Si       4.46708018       1.54744195      10.12062657       0.00136500       0.00072762      -0.08195983
Si       8.03928374       1.54325867      15.17078613       0.00697129       0.00891453      -0.00904900
Si       8.04074432       1.54744196       7.58805938      -0.00026482       0.00028488      -0.10203243
C        8.04074432       1.54744196       5.68435955      -0.00169770       0.00122153       0.09273481
C        8.04074432       1.54744196      13.27662505      -0.00651877      -0.00489332      -0.02823277
C        4.46708018       1.54744195       3.15844319       0.00110557       0.00071939       0.09124074
C        3.57366413       3.09488395      10.75070869       0.00074099       0.00046717       0.03669093
C        3.57366413       3.09488395       0.63055283       0.00229420       0.00137631      -0.20177118
C        4.46708018       1.54744195       8.22281833       0.00042912       0.00003060       0.10811720
C        5.40130491       0.08161492      18.63769153      -0.00070757      -0.00125444      -0.01464475
C        6.74190701       0.85555445      18.63754266      -0.00105184      -0.00096365      -0.01076521
C        4.05996321       2.40266362      18.63029017      -0.00011184       0.00024194       0.00732867
C        5.40087302       3.17722890      18.62609493      -0.00041189      -0.00000180       0.01175688
C        8.08179029       0.08162520      18.63559294      -0.00064766      -0.00045560      -0.00631771
C        9.42106362       0.85528155      18.63731630      -0.00075051       0.00018152      -0.01071662
C        6.74189995       2.40256556      18.63455004      -0.00092945      -0.00075565      -0.00337740
C        8.08155883       3.17559562      18.63667992      -0.00061886      -0.00066154      -0.00875332
Si       4.46708018       4.64232588       5.05623624       0.00000051      -0.00020569      -0.02926867
Si       3.57366413       6.18976788      12.64850174       0.00058415      -0.00230397      -0.12515565
Si       3.57366413       6.18976788       2.52836107      -0.00006685      -0.00035970       0.24278130
Si       4.46708018       4.64232588      10.12062657      -0.00089063      -0.00029002      -0.08033618
Si       2.69306083       4.64654542      15.16930446      -0.00410965       0.00172984      -0.00491981
Si       2.68024811       4.64232589       7.58805938       0.00028694       0.00017509      -0.10169613
C        2.68024811       4.64232589       5.68435955      -0.00027279       0.00004654       0.09288316
C        2.68024811       4.64232589      13.27662505       0.01311468       0.00407314      -0.06176124
C        4.46708018       4.64232588       3.15844319       0.00016841      -0.00082095       0.09150505
C        3.57366413       6.18976788      10.75070869      -0.00414488       0.00002880       0.03258513
C        3.57366413       6.18976788       0.63055283      -0.00242301      -0.00390679      -0.20186194
C        4.46708018       4.64232588       8.22281833       0.00015941      -0.00130895       0.10797451
Si       4.46708018       7.73720981       5.05623624      -0.00007662      -0.00025788      -0.02922573
Si       6.25391224       4.64232591      12.64850174      -0.00305884      -0.00126704      -0.11334014
Si       6.25391224       4.64232591       2.52836107      -0.00010850      -0.00010182       0.24286281
Si       4.46708018       7.73720981      10.12062657      -0.00226309      -0.00028616      -0.08151760
Si       2.68342633       7.73525901      15.16957153       0.00199826      -0.00285932      -0.00551296
Si       2.68024811       7.73720982       7.58805938      -0.00012650      -0.00025762      -0.10161565
C        2.68024811       7.73720982       5.68435955      -0.00164653      -0.00120688       0.09301249
C        2.68024811       7.73720982      13.27662505       0.00169770      -0.00320308      -0.05741762
C        4.46708018       7.73720981       3.15844319      -0.00087495      -0.00149073       0.09141866
C        6.25391224       4.64232591      10.75070869       0.00282179      -0.00218647       0.03569308
C        6.25391224       4.64232591       0.63055283      -0.00003831      -0.00282487      -0.20195244
C        4.46708018       7.73720981       8.22281833      -0.00041112      -0.00172470       0.10779839
Si       1.78683208       6.18976784       5.05623624      -0.00014655      -0.00012984      -0.02929823
Si       0.89341603       7.73720984      12.64850174       0.00159151      -0.00015092      -0.10134389
Si       0.89341603       7.73720984       2.52836107      -0.00016069      -0.00019258       0.24268977
Si       1.78683208       6.18976784      10.12062657       0.00362320       0.00019283      -0.08180530
Si       5.34837747       6.17867592      15.16996286       0.00461616       0.00868210      -0.00753847
Si       5.36049621       6.18976786       7.58805938      -0.00019977      -0.00037127      -0.10187251
C        5.36049621       6.18976786       5.68435955       0.00019926      -0.00185582       0.09277414
C        5.36049621       6.18976786      13.27662505      -0.01258606      -0.01497102      -0.04254970
C        1.78683208       6.18976784       3.15844319      -0.00075925      -0.00027768       0.09134358
C        0.89341603       7.73720984      10.75070869      -0.00061552       0.00102716       0.03823822
C        0.89341603       7.73720984       0.63055283      -0.00221963      -0.00126164      -0.20171744
C        1.78683208       6.18976784       8.22281833      -0.00213273      -0.00081838       0.10796319
C        2.72144778       4.72437493      18.61948431       0.00124184       0.00059084       0.01991525
C        4.06127189       5.49794301      18.61510970       0.00078110       0.00048645       0.02474970
C        1.38023743       7.04428968      18.63213153       0.00045097      -0.00082198       0.00223557
C        2.72133799       7.81812008      18.62793380       0.00004911      -0.00023783       0.00676714
C        5.40031899       4.72501797      18.62084405       0.00027151       0.00026045       0.02052306
C        6.73984453       5.49794644      18.62847030       0.00013935      -0.00013524       0.00904231
C        4.06164532       7.04352662      18.62201461       0.00034324       0.00054636       0.01755961
C        5.40078295       7.81696655      18.62911443      -0.00002005       0.00076953       0.00741198
C        4.04527040       5.49819277      22.94651221      -0.00028436      -0.00015787       0.01522067
O        4.05019346       5.52223165      24.11736307      -0.00055047       0.00076079       0.01675665
O        4.04062849       5.47431784      21.77005042      -0.00117242      -0.00125676      -0.00907805
