48
Lattice="8.315575849598094 0.0 0.0 4.157787924799047 7.20149657514819 0.0 0.0 0.0 19.999999365264614" Properties=species:S:1:pos:R:3:forces:R:3 energy=-278732.65548046486 free_energy=-278732.65548046486 pbc="T T T"
Pt       3.00284680       1.20024997       4.65800846      -0.00871810      -0.07940132      -0.42595338
Pt       5.77470538       1.20024997       4.65800846      -0.00774596      -0.08092933      -0.42165706
Pt       8.54656396       1.20024997       4.65800846      -0.00700883      -0.07926120      -0.42670568
Pt       4.38877609       3.60074992       4.65800846      -0.00803855      -0.07935119      -0.42050084
Pt       7.16063467       3.60074992       4.65800846      -0.00772539      -0.07934579      -0.42058594
Pt       9.93249325       3.60074992       4.65800846      -0.00806504      -0.08008961      -0.42197639
Pt       5.77470538       6.00124987       4.65800846      -0.00790357      -0.07751619      -0.42429450
Pt       8.54656396       6.00124987       4.65800846      -0.00816300      -0.08023796      -0.42152876
Pt      11.31842254       6.00124987       4.65800846      -0.00775419      -0.08000605      -0.42167660
Pt       1.61691751       2.00041662       6.92122151       0.01160056       0.07346285       0.41985420
Pt       4.38877609       2.00041662       6.92122151       0.01141981       0.07176309       0.41766157
Pt       7.16063467       2.00041662       6.92122151       0.01115345       0.07161782       0.41700645
Pt       3.00284680       4.40091657       6.92122151       0.01134834       0.07361531       0.41856094
Pt       5.77470538       4.40091657       6.92122151       0.01099095       0.07900357       0.41002153
Pt       8.54656396       4.40091657       6.92122151       0.01107451       0.07392024       0.41752916
Pt       4.38877609       6.80141652       6.92122151       0.01160647       0.07363588       0.42176531
Pt       7.16063467       6.80141652       6.92122151       0.01106217       0.07407168       0.42108293
Pt       9.93249325       6.80141652       6.92122151       0.01094030       0.07180628       0.42046716
Pt       1.64522137       0.68566535       9.27804512      -0.00053479       0.00284904       0.00135960
Pt       4.41667138       0.68523911       9.27764408       0.00004679       0.00361831       0.00192704
Pt       7.18928103       0.68517624       9.27759940       0.00053736       0.00233148       0.00225460
Pt       3.03094087       3.08587143       9.27763955      -0.00002185       0.00471155      -0.00056359
Pt       5.80310519       3.08521523       9.27530496      -0.00144882       0.00273411       0.00156246
Pt       8.57487351       3.08592125       9.27746198       0.00219135       0.00341802       0.00170361
Pt       4.41707413       5.48627743       9.27756041      -0.00076105       0.00007662       0.00004988
Pt       7.18911677       5.48640500       9.27740789      -0.00149741       0.00025608       0.00208054
Pt       9.96064665       5.48667884       9.27775409       0.00217798       0.00160051       0.00154215
C        1.64627346       1.41699281      11.33614629      -0.00126730       0.00200906       0.00276368
C        3.03283009       2.24392044      11.35106788      -0.00159640       0.00181931      -0.00117885
C        3.03260456       3.81745346      11.33551621      -0.00173524       0.00194607       0.00346868
C        4.41883227       4.64390964      11.34684834      -0.00154009       0.00030108       0.00426597
C        4.41837864       6.21753470      11.33612133      -0.00066592       0.00092328       0.00222760
C        5.80428840       7.04427830      11.35094825      -0.00094462       0.00101199      -0.00018486
C        4.41833099       1.41769965      11.33530788      -0.00121665       0.00302747       0.00391990
C        5.80442562       2.24507264      11.34569728      -0.00212065       0.00283798       0.00424695
C        5.80425962       3.81642458      11.32734614      -0.00296500       0.00124210       0.00934827
C        7.19011949       4.64388672      11.34710222      -0.00349824       0.00024091       0.00342240
C        7.18974320       6.21752453      11.33606708      -0.00184888       0.00127090       0.00257342
C        8.57619832       7.04498327      11.35065161      -0.00079601       0.00124261      -0.00100504
C        7.18983903       1.41766199      11.33533514      -0.00183140       0.00308250       0.00370933
C        8.57592546       2.24388874      11.35104245      -0.00182780       0.00169076      -0.00114028
C        8.57576184       3.81744195      11.33556600      -0.00293389       0.00209416       0.00321902
C        9.96220983       4.64414556      11.35058564      -0.00203040       0.00200186       0.00002725
C        9.96182250       6.21818035      11.33583462      -0.00107498       0.00199081       0.00341725
C       11.34796100       7.04494884      11.35065734      -0.00111020       0.00129532      -0.00121767
C        5.77846901       3.59578806      15.63894776      -0.00005116       0.00043863      -0.00404794
O        5.78235876       3.58902944      16.81013620       0.00047025      -0.00011030      -0.00537798
O        5.77446646       3.60226389      14.46194365      -0.00017972       0.00129018      -0.00344271
