101
Lattice="17.265850017958673 -0.00010359510010775204 0.0 -8.633011338229426 14.952692293502695 0.0 -0.0 0.0 15.000000722551901" Properties=species:S:1:pos:R:3:forces:R:3 energy=-25986.074589773056 free_energy=-25986.074589773056 pbc="T T T"
C        1.20441924       0.66209478       5.01091576      -0.00012418      -0.00267600      -0.00353552
C       -0.02867577       1.37398263       5.00967174      -0.00206357       0.00019926      -0.00138377
C       -0.02872993       2.79812048       5.00383255       0.00037795      -0.00262021      -0.00289609
C       -1.26193925       3.51003242       5.00458416       0.00073945       0.00035970       0.00030905
C       -1.26216331       4.93418573       5.00356647       0.00150538      -0.00335760      -0.00279299
C       -2.49547039       5.64616923       5.00941166       0.00360057      -0.00051936      -0.00132360
C       -2.49574550       7.07037566       5.01072305       0.00247854      -0.00288324      -0.00376461
C       -3.72907997       7.78238572       5.01242614       0.00478457      -0.00205817      -0.00130895
C       -3.72940071       9.20656582       5.00941615       0.00298248      -0.00405669       0.00118914
C       -4.96268436       9.91855201       5.00651356       0.00523682      -0.00141256       0.00251737
C       -4.96286805      11.34274613       5.00475924       0.00374044      -0.00645193       0.00705742
C       -6.19609443      12.05467538       5.00633097       0.00416184      -0.00331467       0.00280507
C       -6.19615398      13.47877967       5.00918405       0.00478688      -0.00369545       0.00183474
C       -7.42924978      14.19070855       5.01234012       0.00655477      -0.00338666      -0.00092123
C        3.67091319       0.66210006       5.00356755      -0.00164011      -0.00051859      -0.00282924
C        2.43776988       1.37411100       5.00380036      -0.00131461       0.00161080      -0.00681085
C        2.43784518       2.79816359       4.99051959      -0.00056796       0.00047797      -0.00603566
C        1.20447201       3.51013406       4.99233222       0.00224354       0.00256493      -0.00673886
C        1.20443786       4.93419216       4.98034997       0.00230757       0.00053762      -0.00491492
C       -0.02893162       5.64614689       4.99190589       0.00173524       0.00242069      -0.00650438
C       -0.02908491       7.07029423       4.98978316       0.00456988       0.00086389      -0.00554638
C       -1.26246058       7.78236068       5.00331883       0.00079010      -0.00028668      -0.00675069
C       -1.26275939       9.20645199       5.00319364       0.00358206      -0.00003368      -0.00292077
C       -2.49612368       9.91856069       5.00678382       0.00250734      -0.00054327       0.00272254
C       -2.49627801      11.34268294       5.00485735       0.00230499      -0.00246723       0.00739398
C       -3.72960791      12.05470527       5.00409469       0.00352241      -0.00078162       0.01103826
C       -3.72962513      13.47874906       5.00480244       0.00612103      -0.00178177       0.00783955
C       -4.96281852      14.19079085       5.00671844       0.00578627      -0.00130124       0.00323856
C        6.13756178       0.66191181       5.00337410      -0.00170721       0.00128555      -0.00251402
C        4.90433285       1.37396170       4.99696631      -0.00277242       0.00244820      -0.00584643
C        4.90431845       2.79796626       4.97994595       0.00232016       0.00135317      -0.00508564
C        3.67109436       3.51014430       4.97257221       0.00015298       0.00394767      -0.00055099
C        3.67117620       4.93418790       4.95013970       0.00160385       0.00132180       0.00562146
C        2.43768078       5.64610741       4.95686970       0.00120636       0.00120071       0.00474523
C        2.43776086       7.07021320       4.94932976       0.00321105       0.00202963       0.00569705
C        1.20432296       7.78216760       4.97159526      -0.00056564      -0.00108758      -0.00029259
C        1.20396075       9.20626698       4.97889197       0.00338100      -0.00102407      -0.00495374
C       -0.02941206       9.91837372       4.99627314       0.00100324      -0.00002340      -0.00587908
C       -0.02955034      11.34249165       5.00291692       0.00239447      -0.00349799      -0.00286601
C       -1.26291999      12.05455322       5.00648381       0.00234125      -0.00093485       0.00323342
C       -1.26295776      13.47859662       5.00913835       0.00558778      -0.00138968       0.00207077
C       -2.49619182      14.19065350       5.00660221       0.00433925      -0.00186868       0.00344322
C        8.60434085       0.66172228       5.01092495      -0.00317865       0.00158946      -0.00344502
C        7.37108749       1.37378212       5.00355416      -0.00477608       0.00230911      -0.00642416
C        7.37102638       2.79783426       4.99015736       0.00022446       0.00006171      -0.00583358
C        6.13773144       3.50997016       4.97229307      -0.00278810       0.00516175      -0.00032267
C        6.13746587       4.93405722       4.94970786       0.00044300      -0.00080424       0.00593848
C        4.90434726       5.64633566       4.93194487      -0.00111612       0.00278630       0.01071404
C        4.90423321       7.06998369       4.91790620      -0.00013807       0.00040983       0.02096118
C        3.67120651       7.78183719       4.93088692       0.00023140      -0.00029285       0.01128046
C        3.67077009       9.20579964       4.94850311       0.00126267      -0.00292463       0.00621924
C        2.43751642       9.91803444       4.97113513      -0.00053479       0.00099219      -0.00022317
C        2.43728199      11.34219328       4.98927084       0.00265724      -0.00528645      -0.00536229
C        1.20394523      12.05427644       5.00300435      -0.00056461      -0.00018846      -0.00657868
C        1.20388188      13.47833048       5.01071549       0.00478199      -0.00216744      -0.00379109
C       -0.02937489      14.19043849       5.01241779       0.00283567      -0.00217104      -0.00088472
C       11.07113997       0.66143180       5.01011841      -0.00409037       0.00194992       0.00163059
C        9.83790178       1.37349410       5.00992550      -0.00588988       0.00160977      -0.00169976
C        9.83783916       2.79756392       5.00389850      -0.00261301       0.00044583      -0.00324216
C        8.60447148       3.50962587       4.99196519      -0.00221449       0.00352318      -0.00648792
C        8.60429197       4.93371265       4.97962159      -0.00146733       0.00031547      -0.00452051
C        7.37095320       5.64579201       4.95595017      -0.00347459       0.00098628       0.00458273
C        7.37053402       7.06992699       4.94779137       0.00005014       0.00086132       0.00621718
C        6.13719355       7.78169500       4.92955888      -0.00306733      -0.00208645       0.01200679
C        6.13732108       9.20557529       4.94738436      -0.00094514      -0.00124081       0.00645964
C        4.90403668       9.91787421       4.95511979      -0.00134880      -0.00156992       0.00554098
C        4.90394724      11.34191407       4.97902378      -0.00004165      -0.00393816      -0.00419090
C        3.67069550      12.05405742       4.99136178      -0.00190493      -0.00115648      -0.00642622
C        3.67065404      13.47809324       5.00372537       0.00280430      -0.00282076      -0.00347587
C        2.43740185      14.19016016       5.00980585       0.00152235      -0.00131461      -0.00172624
C       13.53778715       0.66127597       5.00569441      -0.00569705       0.00112846       0.00758167
C       12.30460095       1.37330033       5.00629278      -0.00623055       0.00184502       0.00815040
C       12.30453152       2.79734926       5.00554923      -0.00297914       0.00092534       0.00784135
C       11.07122689       3.50942813       5.00472738      -0.00226026       0.00236541      -0.00010464
C       11.07100930       4.93350922       5.00335512      -0.00233868       0.00058261      -0.00326067
C        9.83767708       5.64559706       4.99114918      -0.00335889      -0.00028102      -0.00653960
C        9.83735046       7.06969992       4.98858801      -0.00088240       0.00046331      -0.00540343
C        8.60399113       7.78172219       4.96992642      -0.00461462      -0.00079961       0.00057978
C        8.60391352       9.20582092       4.97726013      -0.00212502      -0.00285752      -0.00401915
C        7.37052012       9.91771811       4.96973779      -0.00230834      -0.00038207       0.00049751
C        7.37049566      11.34180039       4.98843254      -0.00230268      -0.00232042      -0.00536692
C        6.13722132      12.05390594       4.99096635       0.00035481      -0.00072891      -0.00670055
C        6.13723360      13.47792169       5.00345497       0.00151258      -0.00129969      -0.00361574
C        4.90410106      14.18997820       5.00483902       0.00181494       0.00062555      -0.00052348
C       16.00421782       0.66132718       5.00970297      -0.00638405       0.00329255       0.00197641
C       14.77110813       1.37323619       5.00596856      -0.00475011       0.00368053       0.00867362
C       14.77104439       2.79736238       5.00529975      -0.00410991       0.00295317       0.00825273
C       13.53778690       3.50929883       5.00581878      -0.00361214       0.00683502       0.00862657
C       13.53758570       4.93347667       5.00950362      -0.00478482       0.00126653       0.00191881
C       12.30427788       5.64546184       5.00926802      -0.00296217       0.00377721      -0.00171647
C       12.30395165       7.06968673       5.01039961      -0.00463544       0.00202372      -0.00398367
C       11.07060076       7.78165668       5.00249187      -0.00230859       0.00288118      -0.00681522
C       11.07039138       9.20582568       5.00241596      -0.00351444       0.00095131      -0.00302516
C        9.83708048       9.91778803       4.99519703      -0.00151438       0.00343756      -0.00593333
C        9.83690256      11.34197919       5.00232425      -0.00094591      -0.00031213      -0.00325707
C        8.60366721      12.05383471       5.00241433      -0.00061989       0.00265466      -0.00695201
C        8.60364567      13.47798754       5.01038332       0.00204017       0.00014835      -0.00407057
C        7.37055726      14.18993999       5.00941727      -0.00021186       0.00246389      -0.00183680
C        4.96086965       7.18279372       9.25711792      -0.00048594       0.00002571       0.00537052
O        4.96415367       7.19113624       8.08283268       0.00041446       0.00129455       0.00231348
O        4.95756821       7.17444913      10.43099514      -0.00006505      -0.00032859       0.00663447
