101
Lattice="17.265850017958673 -0.00010359510010775204 0.0 -8.633011338229426 14.952692293502695 0.0 -0.0 0.0 15.000000722551901" Properties=species:S:1:pos:R:3:forces:R:3 energy=-25938.60493416807 free_energy=-25938.60493416807 pbc="T T T"
C        1.20992357       0.66344804       5.01399496      -0.00720937      -0.00523939      -0.00365431
C       -0.02327559       1.37533543       5.01768830      -0.00244101      -0.00394561      -0.01122055
C       -0.02325129       2.79928054       5.01195183      -0.00820465       0.00169744      -0.00569268
C       -1.25653059       3.51112841       5.00420720      -0.00600533       0.00190570       0.00218184
C       -1.25705324       4.93515669       4.99951522      -0.00445881       0.00320411       0.00174526
C       -2.49049167       5.64724165       4.99628731       0.00897084       0.00067389       0.00380472
C       -2.49079070       7.07133029       5.00057666      -0.00282281       0.00230062      -0.00483625
C       -3.72407039       7.78364930       5.00416438       0.00579655      -0.00930894      -0.00051756
C       -3.72413700       9.20767170       5.00640432      -0.00166145      -0.00224663      -0.00191444
C       -4.95739120       9.91970488       5.01186356       0.00278399      -0.00063326      -0.01043534
C       -4.95727658      11.34385281       5.00630587      -0.00201574      -0.00364325       0.00261764
C       -6.19052005      12.05582864       5.01002507       0.00158457      -0.00070063       0.00290072
C       -6.19035563      13.47999352       5.00598411      -0.00062452      -0.00474086       0.00414668
C       -7.42340258      14.19203574       5.01296578      -0.00053710      -0.00245643       0.00772102
C        3.67611168       0.66349519       5.00113983      -0.00369622      -0.00386771       0.00792645
C        2.44294946       1.37559810       5.00790472       0.00116574      -0.00767603       0.00204814
C        2.44284464       2.79947379       5.00878260      -0.00254796      -0.00014064      -0.00080656
C        1.20962379       3.51158368       5.00931001       0.00308789      -0.00508770      -0.00054379
C        1.20927932       4.93548772       5.00368257      -0.00355532      -0.00109503      -0.00138917
C       -0.02413634       5.64736334       5.00059054       0.00599041       0.00082738       0.00243226
C       -0.02431758       7.07132001       4.99910632      -0.00114363       0.00284647      -0.00297220
C       -1.25775778       7.78332196       5.00144916       0.00949894      -0.00031265      -0.00551913
C       -1.25770351       9.20731381       5.00166562      -0.00449892       0.00387028      -0.00673578
C       -2.49095680       9.91953409       5.00147008       0.00431688       0.00235410       0.00390139
C       -2.49093992      11.34363751       4.99765583       0.00208079       0.00038104       0.00945806
C       -3.72403820      12.05588624       4.99795383      -0.00117525       0.00030313       0.00724820
C       -3.72396268      13.48006909       4.99583268      -0.00178666      -0.00587317       0.00954496
C       -4.95720089      14.19210567       4.99902386       0.00436393      -0.00162751       0.00814423
C        6.14258278       0.66321459       5.00229720      -0.00315551       0.00004988       0.00236002
C        4.90934334       1.37532569       5.00157346       0.00139020      -0.00416493       0.00332187
C        4.90933570       2.79920678       5.00454261      -0.00000900       0.00082867       0.01179056
C        3.67603524       3.51118226       5.00661035       0.00088395      -0.00542066      -0.00430968
C        3.67574651       4.93504566       5.00376144       0.00022729       0.00207051      -0.00372501
C        2.44240369       5.64740729       4.99952551       0.00293209       0.00381449       0.00389779
C        2.44220772       7.07128221       4.99176130      -0.00233765       0.00505916       0.00261121
C        1.20883139       7.78323675       4.99506741       0.00658022       0.00259784       0.01012012
C        1.20873053       9.20721963       4.99752042       0.00041318      -0.00046666      -0.00019283
C       -0.02460707       9.91931752       5.00051720       0.00888830       0.00070731      -0.00352370
C       -0.02449113      11.34339295       5.00100655      -0.00041472       0.00343885      -0.00269426
C       -1.25768875      12.05563264       4.99844187       0.00241092      -0.00247109       0.00614854
C       -1.25756305      13.47967949       5.00071333      -0.00128709       0.00015067       0.00025300
C       -2.49074181      14.19201472       4.99844277       0.00450843      -0.00737392       0.00121999
C        8.60913954       0.66280059       5.00928647      -0.00294083       0.00262715      -0.00521857
C        7.37585241       1.37493873       5.00862100       0.00562917      -0.00089037      -0.00848927
C        7.37595822       2.79878247       5.00977725      -0.00149870       0.00503782       0.00380703
C        6.14266567       3.51088126       5.00700704       0.00574153       0.00228597       0.00319382
C        6.14295127       4.93463118       5.00562431      -0.00064818       0.00781641       0.00397904
C        4.90943223       5.64639777       5.00149560      -0.00211705       0.00386977      -0.00800333
C        4.90864634       7.07077811       4.99474122       0.00095645       0.00699520      -0.00883534
C        3.67504465       7.78305359       4.98801275      -0.00108166       0.00585132       0.00424361
C        3.67499030       9.20674164       4.99427847       0.00199929       0.00339926      -0.00076953
C        2.44192450       9.91909313       4.99785954       0.00446035      -0.00168279      -0.00179154
C        2.44198253      11.34320303       5.00206037       0.00257625      -0.00005502      -0.00333112
C        1.20874991      12.05552270       5.00267725       0.00586314      -0.00569242      -0.00510415
C        1.20906802      13.47957874       5.00346275       0.00137503      -0.00300948       0.00430685
C       -0.02428622      14.19157623       5.00576733       0.00833346      -0.00138608      -0.01231430
C       11.07591287       0.66271466       5.00201087      -0.00026328       0.00376975       0.00501931
C        9.84252637       1.37466128       5.00826549       0.00167276       0.00235667      -0.01633113
C        9.84257916       2.79868069       5.00792357       0.00108552       0.00593719      -0.00874175
C        8.60911740       3.51079736       5.01088532       0.00638611      -0.00315114      -0.00888753
C        8.60905080       4.93468961       5.00946408       0.00471489       0.00539649       0.00016841
C        7.37594991       5.64672546       5.00740554      -0.00366382      -0.00083612       0.00463210
C        7.37595320       7.07040207       5.00839145       0.00222503       0.00355044      -0.00055382
C        6.14268872       7.78246782       5.00305155      -0.00227286       0.00797968      -0.00141719
C        6.14203789       9.20672675       5.00858556       0.00276754       0.00491955      -0.00287809
C        4.90827573       9.91860199       5.00395561       0.00305498       0.00546539      -0.00345788
C        4.90866203      11.34287667       5.00794143       0.00032062       0.00615702      -0.00163831
C        3.67535843      12.05520024       5.00405298       0.00606575      -0.00498177       0.00679260
C        3.67589869      13.47929444       5.00364184      -0.00021854       0.00125573       0.00144702
C        2.44261064      14.19147380       5.00185904      -0.00045483      -0.00524916       0.01118250
C       13.54272718       0.66271528       5.00436377      -0.00285598       0.00114414       0.00242892
C       12.30937479       1.37470120       4.99826490      -0.00005476      -0.00000720       0.01350369
C       12.30957467       2.79875626       4.99512931      -0.00717646       0.00293157       0.00204403
C       11.07604929       3.51070025       4.99970401      -0.00147427       0.00095516       0.00682474
C       11.07592996       4.93484295       5.00076374      -0.00430608      -0.00027048      -0.00397853
C        9.84237921       5.64668583       5.00751878       0.00238855       0.00051062       0.00664039
C        9.84235174       7.07071331       5.01270131      -0.00224097       0.00361523       0.00258524
C        8.60896124       7.78265132       5.01505916      -0.00172264      -0.00072377       0.00230294
C        8.60892261       9.20684324       5.01935907      -0.00287346      -0.00027331      -0.00287192
C        7.37557250       9.91889643       5.01586293       0.00199800       0.00451383       0.00583126
C        7.37557663      11.34312511       5.01648525      -0.00140999       0.00103178       0.00886979
C        6.14214485      12.05510318       5.01356575       0.00290406      -0.00177869       0.00653626
C        6.14274010      13.47934158       5.01557965      -0.00593513      -0.00047000      -0.00685919
C        4.90942541      14.19133264       5.00782262      -0.00161182      -0.00247854       0.00630640
C       16.00935247       0.66301779       5.01881990      -0.00417984       0.00115211      -0.01391404
C       14.77608927       1.37487841       5.00944342      -0.00473314      -0.00191496      -0.00788017
C       14.77619172       2.79888783       5.00124750      -0.00721220       0.00236901       0.00113180
C       13.54285092       3.51095798       4.99262633      -0.00451614      -0.00484704       0.02030914
C       13.54255489       4.93501242       4.99277325      -0.01145786       0.00012290       0.00473520
C       12.30912799       5.64709732       4.99655127      -0.00249706      -0.00401503       0.01724747
C       12.30884175       7.07119979       5.00449968      -0.00459353       0.00044326      -0.00001466
C       11.07544872       7.78311993       5.01325002       0.00074819      -0.00413151      -0.00402969
C       11.07538817       9.20724527       5.01812461       0.00052091      -0.00161208      -0.01058986
C        9.84215108       9.91914691       5.02126317      -0.00294057       0.00421584      -0.01274316
C        9.84218741      11.34339571       5.01783052      -0.00308764      -0.00089629      -0.00210830
C        8.60890292      12.05542809       5.01800131       0.00174295      -0.00014578       0.00656531
C        8.60928044      13.47967481       5.01860086      -0.00466064      -0.00354144      -0.00170927
C        7.37607483      14.19170491       5.02059420      -0.00287604      -0.00906340      -0.01441129
C        5.04120933       7.16066093       8.27133644       0.00590762      -0.00263847      -0.01515177
O        6.06217167       6.58084502       8.28632184       0.00674555      -0.00714021      -0.01215592
O        4.02027507       7.74064963       8.26229135      -0.00489384       0.00461693      -0.00331698
