179
Lattice="10.720992125991367 0.0 0.0 -5.360496062995684 9.284647205911675 0.0 0.0 0.0 34.99999747733031" Properties=species:S:1:pos:R:3:forces:R:3 energy=-73584.32440811393 free_energy=-73584.32440811393 pbc="T T T"
Si       1.78683238      -0.00000000       5.05623645       0.00003445       0.00015658      -0.02758665
Si       0.89341565       1.54744227      12.64850107      -0.00271329       0.00037949      -0.05184887
Si       0.89341565       1.54744227       2.52836052       0.00021674       0.00032087       0.24446075
Si       1.78683238      -0.00000000      10.12062622       0.00272897      -0.00332598      -0.08123863
Si      -0.03052910      -0.01516377      15.16902669      -0.00040418      -0.00241787      -0.00256236
Si       0.00000000       0.00000000       7.58805878      -0.00050651      -0.00024040      -0.10022623
C        0.00000000       0.00000000       5.68435901      -0.00027125       0.00017252       0.09122043
C        0.00000000       0.00000000      13.27662471      -0.02486102      -0.01119741      -0.06182963
C        1.78683238      -0.00000000       3.15844288       0.00209905       0.00013935       0.09095946
C        0.89341565       1.54744227      10.75070857       0.00036895       0.00172058       0.04902425
C        0.89341565       1.54744227       0.63055301       0.00228494       0.00404126      -0.20077667
C        1.78683238      -0.00000000       8.22281763       0.00107266       0.00079936       0.10719366
Si       1.78683238       3.09488347       5.05623645      -0.00011159       0.00007148      -0.02769232
Si       3.57366368       0.00000000      12.64850107       0.00324627       0.00190339      -0.13472298
Si       3.57366368       0.00000000       2.52836052       0.00034170      -0.00006016       0.24416121
Si       1.78683238       3.09488347      10.12062622       0.00317994       0.00331595      -0.08091493
Si      -0.02311231       3.10943615      15.16909102      -0.00039518       0.00062452      -0.00245875
Si       0.00000000       3.09488347       7.58805878      -0.00036433       0.00046048      -0.10042060
C        0.00000000       3.09488347       5.68435901       0.00012496       0.00206460       0.09132198
C        0.00000000       3.09488347      13.27662471      -0.01859396       0.01511372      -0.06147816
C        1.78683238       3.09488347       3.15844288       0.00115211       0.00161028       0.09052649
C        3.57366368       0.00000000      10.75070857       0.00164216      -0.00268963       0.02924424
C        3.57366368       0.00000000       0.63055301       0.00457374      -0.00014141      -0.20154106
C        1.78683238       3.09488347       8.22281763      -0.00006633       0.00063146       0.10695995
Si      -0.89341565       1.54744227       5.05623645       0.00015195       0.00027099      -0.02759154
Si      -1.78683238       3.09488347      12.64850107       0.00286832       0.00217670      -0.13572365
Si      -1.78683238       3.09488347       2.52836052      -0.00012007       0.00037667       0.24392056
Si      -0.89341565       1.54744227      10.12062622      -0.00350673      -0.00017843      -0.07938332
Si       2.71513950       1.55107240      15.16987044       0.00160257       0.00195815      -0.00392222
Si       2.68024803       1.54744227       7.58805878       0.00088986       0.00028771      -0.10015141
C        2.68024803       1.54744227       5.68435901       0.00184117       0.00123104       0.09169402
C        2.68024803       1.54744227      13.27662471       0.02989036       0.00255413      -0.03907743
C       -0.89341565       1.54744227       3.15844288      -0.00088137       0.00171441       0.09079722
C       -1.78683238       3.09488347      10.75070857      -0.00120816       0.00265749       0.02908535
C       -1.78683238       3.09488347       0.63055301      -0.00216050       0.00404383      -0.20105898
C       -0.89341565       1.54744227       8.22281763       0.00006968       0.00166762       0.10645627
C        0.03349345       0.10251413      18.61463456       0.00100222       0.00160514       0.00204068
C        1.37412457       0.87665660      18.61682915      -0.00040829       0.00030828       0.00197949
C       -1.30755150       2.42315650      18.61804062       0.00007996       0.00123799      -0.00656865
C        0.03364783       3.19725394      18.61584067       0.00080141       0.00168639      -0.00318534
C        2.71372219       0.10352083      18.61748742      -0.00168279      -0.00152698      -0.00288452
C        4.05335089       0.87723232      18.61722475      -0.00293851      -0.00140665      -0.00454108
C        1.37472066       2.42293672      18.61619661      -0.00002185       0.00144110       0.00239627
C        2.71389050       3.19575622      18.61367718      -0.00065563       0.00105518       0.00200752
Si      -0.89341565       4.64232575       5.05623645       0.00015247       0.00014527      -0.02774092
Si      -1.78683238       6.18976802      12.64850107       0.00171930      -0.00155577      -0.14003051
Si      -1.78683238       6.18976802       2.52836052       0.00037949      -0.00011133       0.24337754
Si      -0.89341565       4.64232575      10.12062622      -0.00314292      -0.00120662      -0.07811397
Si      -2.64819655       4.64406898      15.16914784       0.00323342       0.00134109      -0.00256210
Si      -2.68024803       4.64232575       7.58805878       0.00057001      -0.00006042      -0.09996166
C       -2.68024803       4.64232575       5.68435901      -0.00015607       0.00018178       0.09156753
C       -2.68024803       4.64232575      13.27662471       0.02569946      -0.00005219      -0.05990285
C       -0.89341565       4.64232575       3.15844288       0.00025608       0.00117911       0.09071443
C       -1.78683238       6.18976802      10.75070857      -0.00235513       0.00035070       0.02798851
C       -1.78683238       6.18976802       0.63055301       0.00230808      -0.00128915      -0.20113611
C       -0.89341565       4.64232575       8.22281763       0.00085566       0.00128864       0.10629686
Si      -0.89341565       7.73720922       5.05623645       0.00049057      -0.00007045      -0.02771855
Si       0.89341565       4.64232575      12.64850107      -0.00332187      -0.00095362      -0.09769549
Si       0.89341565       4.64232575       2.52836052      -0.00018306       0.00040521       0.24441189
Si      -0.89341565       7.73720922      10.12062622      -0.00508873       0.00123721      -0.07966075
Si      -2.66406041       7.73318134      15.16934725       0.00212476      -0.00039929      -0.00225820
Si      -2.68024803       7.73720922       7.58805878       0.00058364      -0.00023886      -0.09941248
C       -2.68024803       7.73720922       5.68435901       0.00206408      -0.00113746       0.09192388
C       -2.68024803       7.73720922      13.27662471       0.01481598      -0.00289918      -0.05880884
C       -0.89341565       7.73720922       3.15844288       0.00113643      -0.00060909       0.09068332
C        0.89341565       4.64232575      10.75070857       0.00289146      -0.00000309       0.03851718
C        0.89341565       4.64232575       0.63055301       0.00012213       0.00267729      -0.20153772
C       -0.89341565       7.73720922       8.22281763       0.00242995      -0.00093074       0.10653315
Si      -3.57366368       6.18976802       5.05623645      -0.00014090      -0.00036227      -0.02768307
Si      -4.46708041       7.73720922      12.64850107      -0.00344913       0.00043709      -0.09907746
Si      -4.46708041       7.73720922       2.52836052       0.00005631      -0.00034016       0.24426688
Si      -3.57366368       6.18976802      10.12062622       0.00512292       0.00194170      -0.08092007
Si      -0.02479765       6.17735526      15.16989831      -0.00344682      -0.00208774      -0.00355686
Si       0.00000000       6.18976802       7.58805878      -0.00051525      -0.00017329      -0.10067412
C        0.00000000       6.18976802       5.68435901       0.00016995       0.00006839       0.09140812
C        0.00000000       6.18976802      13.27662471      -0.01994019      -0.00962955      -0.03818602
C       -3.57366368       6.18976802       3.15844288       0.00123182      -0.00175709       0.09044164
C       -4.46708041       7.73720922      10.75070857       0.00426032       0.00081684       0.03754479
C       -4.46708041       7.73720922       0.63055301       0.00246697      -0.00372861      -0.20100576
C       -3.57366368       6.18976802       8.22281763      -0.00055022      -0.00234099       0.10709930
C       -2.64675994       4.74518187      18.61565305      -0.00028719      -0.00184117      -0.00036535
C       -1.30637219       5.51892767      18.61737270       0.00069188      -0.00119813      -0.00016352
C       -3.98818977       7.06584461      18.61544292       0.00042963      -0.00166736       0.00258987
C       -2.64689717       7.84040413      18.61594574      -0.00071374      -0.00265492      -0.00135291
C        0.03330047       4.74495352      18.61680449       0.00158688       0.00096494       0.00062889
C        1.37285199       5.51862105      18.61492724       0.00206742       0.00216667       0.00263075
C       -1.30603340       7.06595611      18.61776295       0.00005296      -0.00221475      -0.00212887
C        0.03370466       7.83878526      18.61764609      -0.00015658      -0.00055947      -0.00188693
Si       7.14732844      -0.00000000       5.05623645      -0.00051371      -0.00012444      -0.02766070
Si       6.25391172       1.54744227      12.64850107      -0.00574590       0.00039878      -0.09526143
Si       6.25391172       1.54744227       2.52836052      -0.00001414      -0.00003445       0.24516574
Si       7.14732844      -0.00000000      10.12062622       0.00271714       0.00070294      -0.08099901
Si       5.33492006       0.01510481      15.16908888      -0.00145010       0.00154523      -0.00262484
Si       5.36049606       0.00000000       7.58805878      -0.00049185       0.00024400      -0.10040286
C        5.36049606       0.00000000       5.68435901      -0.00022163       0.00015427       0.09126851
C        5.36049606       0.00000000      13.27662471      -0.01966431       0.01210681      -0.06108375
C        7.14732844      -0.00000000       3.15844288      -0.00175683       0.00023551       0.09063936
C        6.25391172       1.54744227      10.75070857      -0.00004654       0.00050419       0.03899001
C        6.25391172       1.54744227       0.63055301      -0.00218698       0.00136191      -0.20206094
C        7.14732844      -0.00000000       8.22281763      -0.00285701      -0.00042089       0.10715098
Si       7.14732844       3.09488347       5.05623645      -0.00033579       0.00019000      -0.02759591
Si       8.93415975       0.00000000      12.64850107       0.00256082      -0.00235976      -0.14333386
Si       8.93415975       0.00000000       2.52836052      -0.00043452      -0.00002725       0.24413396
Si       7.14732844       3.09488347      10.12062622       0.00261404      -0.00087135      -0.08130265
Si       5.33224839       3.07753798      15.16907815      -0.00162108      -0.00076670      -0.00242995
Si       5.36049606       3.09488347       7.58805878      -0.00041498      -0.00042500      -0.10035941
C        5.36049606       3.09488347       5.68435901       0.00016892      -0.00006428       0.09154670
C        5.36049606       3.09488347      13.27662471      -0.02231718      -0.01394721      -0.06056131
C        7.14732844       3.09488347       3.15844288      -0.00083149       0.00039569       0.09024726
C        8.93415975       0.00000000      10.75070857      -0.00233559      -0.00098268       0.02681763
C        8.93415975       0.00000000       0.63055301      -0.00457733      -0.00002751      -0.20109112
C        7.14732844       3.09488347       8.22281763      -0.00170130       0.00081915       0.10713273
Si       4.46708041       1.54744227       5.05623645       0.00027202       0.00003291      -0.02761339
Si       3.57366368       3.09488347      12.64850107       0.00223352      -0.00289429      -0.14337217
Si       3.57366368       3.09488347       2.52836052       0.00001234       0.00009976       0.24433836
Si       4.46708041       1.54744227      10.12062622      -0.00092663       0.00039312      -0.07776816
Si       8.05985962       1.54634230      15.17007092      -0.00107961      -0.00108218      -0.00340260
Si       8.04074409       1.54744227       7.58805878       0.00009127       0.00013190      -0.09965390
C        8.04074409       1.54744227       5.68435901      -0.00181134       0.00128555       0.09194162
C        8.04074409       1.54744227      13.27662471       0.01440795       0.00042989      -0.03654206
C        4.46708041       1.54744227       3.15844288       0.00110995       0.00061475       0.09037350
C        3.57366368       3.09488347      10.75070857       0.00070474       0.00338974       0.02683229
C        3.57366368       3.09488347       0.63055301       0.00244538       0.00153341      -0.20154826
C        4.46708041       1.54744227       8.22281763       0.00128787       0.00038232       0.10611894
C        5.39431436       0.10305983      18.61624914      -0.00213736      -0.00072557      -0.00289455
C        6.73473106       0.87676381      18.61704571      -0.00175709       0.00046640       0.00261610
C        4.05310538       2.42366145      18.61479645      -0.00277782      -0.00056641       0.00030905
C        5.39409565       3.19755306      18.61289025      -0.00252097      -0.00099759       0.00202577
C        8.07450771       0.10269638      18.61619554       0.00051499       0.00233456       0.00241427
C        9.41375583       0.87610768      18.61696101       0.00068546       0.00229008      -0.00105852
C        6.73466995       2.42345025      18.61668120      -0.00233893      -0.00082378       0.00178563
C        8.07438228       3.19647988      18.61766002      -0.00109863      -0.00053016      -0.00377618
Si       4.46708041       4.64232575       5.05623645       0.00020286      -0.00016224      -0.02772883
Si       3.57366368       6.18976802      12.64850107       0.00183911       0.00252585      -0.12671502
Si       3.57366368       6.18976802       2.52836052      -0.00023680      -0.00024965       0.24380589
Si       4.46708041       4.64232575      10.12062622      -0.00520700      -0.00253382      -0.07989240
Si       2.69397733       4.63757635      15.16936119       0.00381500      -0.00057438      -0.00201652
Si       2.68024803       4.64232575       7.58805878       0.00020775      -0.00010310      -0.09957163
C        2.68024803       4.64232575       5.68435901      -0.00024863       0.00016224       0.09185806
C        2.68024803       4.64232575      13.27662471       0.01051144      -0.00432948      -0.05726001
C        4.46708041       4.64232575       3.15844288       0.00018538      -0.00110300       0.09074914
C        3.57366368       6.18976802      10.75070857      -0.00389162      -0.00261738       0.03082341
C        3.57366368       6.18976802       0.63055301      -0.00219675      -0.00390036      -0.20107904
C        4.46708041       4.64232575       8.22281763       0.00140639      -0.00059161       0.10682831
Si       4.46708041       7.73720922       5.05623645      -0.00000231      -0.00027691      -0.02762933
Si       6.25391172       4.64232575      12.64850107      -0.00061321      -0.00103435      -0.05327480
Si       6.25391172       4.64232575       2.52836052      -0.00010156       0.00002314       0.24420184
Si       4.46708041       7.73720922      10.12062622      -0.00290740       0.00229728      -0.07802655
Si       2.71211725       7.73912828      15.16915213       0.00658562       0.00018692      -0.00273411
Si       2.68024803       7.73720922       7.58805878       0.00032473      -0.00005682      -0.09993235
C        2.68024803       7.73720922       5.68435901      -0.00168407      -0.00116908       0.09157987
C        2.68024803       7.73720922      13.27662471       0.02105913       0.00141488      -0.05994167
C        4.46708041       7.73720922       3.15844288      -0.00097342      -0.00168613       0.09078334
C        6.25391172       4.64232575      10.75070857       0.00180826      -0.00309201       0.04906333
C        6.25391172       4.64232575       0.63055301       0.00012521      -0.00276959      -0.20178326
C        4.46708041       7.73720922       8.22281763      -0.00015375      -0.00230294       0.10604361
Si       1.78683238       6.18976802       5.05623645      -0.00040032      -0.00003497      -0.02782396
Si       0.89341565       7.73720922      12.64850107      -0.00179720       0.00126755      -0.05608553
Si       0.89341565       7.73720922       2.52836052      -0.00021469      -0.00031727       0.24283272
Si       1.78683238       6.18976802      10.12062622       0.00386848      -0.00181520      -0.08133196
Si       5.34333604       6.20737511      15.16992940      -0.00796425       0.00124030      -0.00379649
Si       5.36049606       6.18976802       7.58805878      -0.00032627       0.00009642      -0.10075793
C        5.36049606       6.18976802       5.68435901       0.00003394      -0.00201960       0.09134435
C        5.36049606       6.18976802      13.27662471      -0.01084466       0.01173220      -0.03746329
C        1.78683238       6.18976802       3.15844288      -0.00086543      -0.00050651       0.09070183
C        0.89341565       7.73720922      10.75070857       0.00088420       0.00096879       0.04823312
C        0.89341565       7.73720922       0.63055301      -0.00213787      -0.00131563      -0.20100499
C        1.78683238       6.18976802       8.22281763      -0.00210265      -0.00000746       0.10723583
C        2.71339305       4.74438530      18.61001596       0.00117551       0.00201472      -0.00033733
C        4.05431364       5.51903381      18.60870049       0.00137194       0.00127347      -0.00585157
C        1.37290559       7.06540612      18.61569594       0.00164808       0.00180594       0.00205457
C        2.71396234       7.83958826      18.61252145       0.00206588       0.00289840       0.00046974
C        5.39434867       4.74526550      18.61222662      -0.00067851      -0.00080270      -0.00082507
C        6.73334055       5.51929218      18.61517490      -0.00015941      -0.00199518       0.00308172
C        4.05446695       7.06607083      18.61052199       0.00236336       0.00213067      -0.00480642
C        5.39357783       7.83870057      18.61388731       0.00150975       0.00069805       0.00053093
C        3.94869149       5.27446332      21.84626536       0.00048414       0.00061295       0.00979822
O        3.91435644       6.44659368      21.90326995      -0.00191599      -0.01867367       0.00760172
O        3.98307693       4.10260527      21.77996567       0.00137425       0.00857566       0.01945040
