101
Lattice="17.265850017958673 -0.00010359510010775204 0.0 -8.633011338229426 14.952692293502695 0.0 -0.0 0.0 15.000000722551901" Properties=species:S:1:pos:R:3:forces:R:3 energy=-26089.63610034678 free_energy=-26089.63610034678 pbc="T T T"
C        1.20728139       0.66580762       5.01684820      -0.00182291      -0.00245566      -0.00057953
C       -0.02605498       1.37781669       5.01796864      -0.00215150      -0.00185968      -0.00008562
C       -0.02606506       2.80191650       5.00840968       0.00006968      -0.00138402      -0.00025505
C       -1.25937023       3.51388057       5.00750400       0.00020620      -0.00160103       0.00027845
C       -1.25931247       4.93788730       4.99806726      -0.00000077      -0.00006273       0.00055073
C       -2.49260709       5.64987554       4.99804705      -0.00250117       0.00092765      -0.00199029
C       -2.49263464       7.07392750       4.99383543      -0.00088215       0.00120096       0.00100324
C       -3.72597194       7.78598419       4.99566163      -0.00189567       0.00155346      -0.00278476
C       -3.72601415       9.21012657       4.99722818       0.00028694      -0.00440276      -0.00015941
C       -4.95929858       9.92213373       5.00119461      -0.00172881      -0.00098833      -0.00105467
C       -4.95927061      11.34620429       5.00616030      -0.00189645      -0.00317223       0.00188076
C       -6.19256182      12.05816763       5.01207749      -0.00234742       0.00017998       0.00034736
C       -6.19259548      13.48226119       5.01550311       0.00008356       0.00003085       0.00058904
C       -7.42582265      14.19431046       5.02017168      -0.00199620       0.00179823       0.00137117
C        3.67374817       0.66581167       5.00269624      -0.00104464      -0.00250605       0.00019720
C        2.44053881       1.37795082       5.00562066      -0.00039621      -0.00343834      -0.00013344
C        2.44057327       2.80202026       4.99318991      -0.00081710      -0.00161002      -0.00163265
C        1.20722063       3.51396089       4.99494297      -0.00045174      -0.00099476       0.00063969
C        1.20728403       4.93793885       4.98258862       0.00173678       0.00143725      -0.00216847
C       -0.02599546       5.64990122       4.98706363      -0.00012650       0.00034144      -0.00206151
C       -0.02588731       7.07399575       4.98117630      -0.00361754      -0.00231579       0.00200546
C       -1.25928069       7.78588366       4.98797492      -0.00122359       0.00524454      -0.00623338
C       -1.25938484       9.21002096       4.98783922       0.00036535      -0.00178743       0.00155989
C       -2.49267966       9.92209252       4.99458552       0.00071014       0.00043914      -0.00039878
C       -2.49277067      11.34619034       4.99728058       0.00257316      -0.00253871      -0.00255362
C       -3.72600756      12.05813987       5.00335367       0.00005708       0.00372270       0.00275597
C       -3.72601393      13.48223240       5.00380698      -0.00007456       0.00152338      -0.00091737
C       -4.95931822      14.19432240       5.00887535       0.00232145       0.00347048       0.00049879
C        6.14019094       0.66576652       4.99222150       0.00124441      -0.00271971      -0.00331801
C        4.90695137       1.37785507       4.99127803      -0.00003574      -0.00222889       0.00093871
C        4.90697044       2.80189953       4.97900038      -0.00149510       0.00110995      -0.00320462
C        3.67378298       3.51402778       4.97742529       0.00005451       0.00324705      -0.00057413
C        3.67394619       4.93806944       4.96217055       0.00285650       0.00616011      -0.00184837
C        2.44052126       5.64993625       4.96651795       0.00366896       0.00237698       0.00089423
C        2.44072820       7.07404366       4.96026518       0.00615908      -0.00212579      -0.00202680
C        1.20738919       7.78590820       4.97110096       0.00143442       0.00031702      -0.00150795
C        1.20721335       9.20996446       4.97440784      -0.00044274      -0.00081607      -0.00070500
C       -0.02608486       9.92200940       4.98353373      -0.00188076       0.00179283      -0.00364840
C       -0.02617163      11.34612601       4.98866575       0.00070140      -0.00234459      -0.00054816
C       -1.25947732      12.05812636       4.99410350       0.00108886       0.00255979       0.00245309
C       -1.25947796      13.48227397       4.99582220       0.00022600      -0.00094822      -0.00407983
C       -2.49277824      14.19433101       4.99755484      -0.00034016       0.00130895       0.00348564
C        8.60671276       0.66576951       4.99313313       0.00291280      -0.00251222      -0.00176815
C        7.37343757       1.37786449       4.98774497       0.00051422      -0.00291692       0.00229600
C        7.37333941       2.80191692       4.97946328       0.00365842       0.00087135      -0.00659102
C        6.14015511       3.51406964       4.97099916      -0.00151232       0.00161157       0.00350621
C        6.13995176       4.93810253       4.95870689      -0.00266443       0.00668975      -0.00310461
C        4.90696510       5.65038034       4.94836655      -0.00095516       0.00544560       0.00126267
C        4.90691937       7.07396985       4.93963071       0.00274131      -0.00094668       0.00078650
C        3.67411707       7.78571544       4.94940112       0.00481259      -0.00156297       0.00089732
C        3.67379193       9.20968054       4.96273555       0.00351521      -0.00599684      -0.00109169
C        2.44059649       9.92181214       4.97340454       0.00155295       0.00173472      -0.00088395
C        2.44046292      11.34589709       4.98531817       0.00112152       0.00241967       0.00063866
C        1.20719910      12.05803086       4.99037412      -0.00211885       0.00151464      -0.00243406
C        1.20711760      13.48214576       4.99635334       0.00045894       0.00030030      -0.00134186
C       -0.02612811      14.19431183       4.99531860      -0.00267626       0.00061655       0.00043606
C       11.07335580       0.66559318       5.00326739       0.00012238       0.00086440       0.00005399
C        9.84008873       1.37770041       4.99564786      -0.00290303      -0.00070808      -0.00106444
C        9.83992722       2.80180539       4.99029556       0.00337097       0.00075539      -0.00093537
C        8.60665960       3.51389773       4.97999037       0.00019155      -0.00214507       0.00130098
C        8.60660908       4.93793479       4.97394812      -0.00037307       0.00001697      -0.00202757
C        7.37332586       5.64996668       4.96236910      -0.00490618       0.00152801      -0.00077827
C        7.37306224       7.07405010       4.96041078      -0.00538595       0.00040778      -0.00033013
C        6.13977853       7.78572661       4.95032173      -0.00564254      -0.00203271      -0.00102818
C        6.14012165       9.20962891       4.96671162      -0.00181623      -0.00655374       0.00007199
C        4.90696155       9.92185383       4.97158200      -0.00202937      -0.00315783      -0.00065512
C        4.90694233      11.34587869       4.98967863      -0.00110146      -0.00139611      -0.00064586
C        3.67372855      12.05798504       4.99348292      -0.00230654       0.00117114      -0.00292514
C        3.67366175      13.48213886       5.00424654       0.00057053      -0.00209442       0.00044609
C        2.44036269      14.19419519       5.00216543      -0.00063043       0.00079036      -0.00144547
C       13.53988498       0.66561106       5.01572467       0.00118631      -0.00139791      -0.00019438
C       12.30664212       1.37762752       5.00866213      -0.00242455       0.00019720       0.00189362
C       12.30657719       2.80168777       5.00442000       0.00077287       0.00274594       0.00213222
C       11.07331677       3.51376760       4.99481774      -0.00172187      -0.00060961      -0.00126035
C       11.07318684       4.93782258       4.99034976       0.00387028      -0.00032293       0.00183345
C        9.83994288       5.64986841       4.98111645      -0.00103461      -0.00136423      -0.00111894
C        9.83976815       7.07389496       4.98215864       0.00329590       0.00021366      -0.00234973
C        8.60648257       7.78584782       4.97478301      -0.00409191       0.00207848       0.00013190
C        8.60659716       9.20989893       4.98481151       0.00111920       0.00059058      -0.00115597
C        7.37329193       9.92183977       4.98405876      -0.00193887      -0.00252354      -0.00302953
C        7.37329868      11.34585916       5.00087435       0.00331647       0.00000334       0.00080630
C        6.14010690      12.05793765       5.00300300      -0.00085283       0.00194375      -0.00169359
C        6.14006809      13.48200874       5.01504687       0.00266752       0.00186842      -0.00016352
C        4.90692246      14.19423553       5.01330051      -0.00171055      -0.00234407       0.00041960
C       16.00645132       0.66557525       5.02215062       0.00288478      -0.00022497       0.00072222
C       14.77319253       1.37762421       5.01859212       0.00004731      -0.00112486       0.00234665
C       14.77317784       2.80169543       5.01274906       0.00201986       0.00285392       0.00089577
C       13.53990895       3.51377256       5.00674340      -0.00264361      -0.00189259      -0.00033424
C       13.53992069       4.93779946       5.00063872      -0.00051294       0.00004859       0.00243278
C       12.30658383       5.64981580       4.99530462      -0.00201240       0.00002005      -0.00379983
C       12.30643832       7.07393752       4.99420145       0.00457939      -0.00132540       0.00069291
C       11.07308786       7.78586070       4.99122548       0.00193758       0.00295265      -0.00140845
C       11.07323760       9.20994828       4.99701109       0.00090709       0.00001208      -0.00114800
C        9.83991920       9.92195613       4.99756518      -0.00099887       0.00031110       0.00012444
C        9.83995224      11.34604168       5.00873019       0.00057233      -0.00165065      -0.00110506
C        8.60659069      12.05790871       5.01222040       0.00174398       0.00201909      -0.00029053
C        8.60669422      13.48203677       5.02081766       0.00171133       0.00134006      -0.00199466
C        7.37339456      14.19409163       5.02186050      -0.00105210       0.00280327      -0.00048774
C        5.02340713       7.10302619       9.20844654       0.00099656      -0.00054970       0.01877471
O        5.00246425       7.07986184       8.03477452       0.00101121      -0.00058930       0.01832477
O        5.04405831       7.12610939      10.38180550       0.00115725       0.00076053       0.01037672
