179
Lattice="10.720992125991367 0.0 0.0 -5.360496062995684 9.284647205911675 0.0 0.0 0.0 34.99999747733031" Properties=species:S:1:pos:R:3:forces:R:3 energy=-74050.62460772124 free_energy=-74050.62460772124 pbc="T T T"
Si       1.78683208      -0.00000002       5.05623624       0.00019000       0.00027716      -0.05599143
Si       0.89341603       1.54744198      12.64850174      -0.00140999      -0.00043195      -0.05278886
Si       0.89341603       1.54744198       2.52836107      -0.00000103      -0.00044686       0.15820898
Si       1.78683208      -0.00000002      10.12062657      -0.00031162      -0.00080733      -0.07769668
Si       0.00183983       0.00012034      15.18061142      -0.00429554      -0.00024785      -0.00146681
Si       0.00000000       0.00000000       7.58805938       0.00002083      -0.00024837      -0.09042184
C        0.00000000       0.00000000       5.68435955      -0.00041600       0.00036047       0.08288208
C        0.00000000       0.00000000      13.27662505       0.00139174       0.00017072       0.05011877
C        1.78683208      -0.00000002       3.15844319       0.00203220       0.00243201       0.08492251
C        0.89341603       1.54744198      10.75070869      -0.00048465       0.00234562       0.02353922
C        0.89341603       1.54744198       0.63055283      -0.00320205      -0.00213710      -0.23848190
C        1.78683208      -0.00000002       8.22281833      -0.00067774      -0.00167225       0.11575492
Si       1.78683208       3.09488391       5.05623624      -0.00006813       0.00009076      -0.05637658
Si       3.57366413       0.00000002      12.64850174       0.00028128      -0.00022420      -0.05688334
Si       3.57366413       0.00000002       2.52836107      -0.00023603      -0.00029336       0.15808968
Si       1.78683208       3.09488391      10.12062657       0.00006608       0.00128504      -0.07828983
Si      -0.00463359       3.09714281      15.18080132       0.00375150      -0.00453980      -0.00157094
Si       0.00000000       3.09488393       7.58805938      -0.00008305      -0.00014964      -0.09043907
C        0.00000000       3.09488393       5.68435955       0.00095182       0.00062015       0.08300215
C        0.00000000       3.09488393      13.27662505      -0.00465215       0.00297939       0.05455264
C        1.78683208       3.09488391       3.15844319       0.00108038       0.00176918       0.08195443
C        3.57366413       0.00000002      10.75070869       0.00241247       0.00028796       0.02245267
C        3.57366413       0.00000002       0.63055283      -0.00104361      -0.00298248      -0.23853307
C        1.78683208       3.09488391       8.22281833      -0.00198952      -0.00338923       0.11518336
Si      -0.89341603       1.54744195       5.05623624       0.00011210      -0.00001337      -0.05635935
Si      -1.78683208       3.09488395      12.64850174      -0.00063249       0.00007996      -0.05580862
Si      -1.78683208       3.09488395       2.52836107      -0.00005785      -0.00012161       0.15761017
Si      -0.89341603       1.54744195      10.12062657       0.00116780      -0.00030648      -0.07805021
Si       2.67923448       1.54258341      15.18161757       0.00316091       0.00640873      -0.00152158
Si       2.68024811       1.54744196       7.58805938      -0.00013884      -0.00034273      -0.09056968
C        2.68024811       1.54744196       5.68435955       0.00169333       0.00373838       0.07933550
C        2.68024811       1.54744196      13.27662505      -0.00079473      -0.00548982       0.07229428
C       -0.89341603       1.54744195       3.15844319       0.00021160       0.00160900       0.08306103
C       -1.78683208       3.09488395      10.75070869       0.00103718       0.00191676       0.02151833
C       -1.78683208       3.09488395       0.63055283      -0.00134392      -0.00088189      -0.24012098
C       -0.89341603       1.54744195       8.22281833      -0.00192164      -0.00290869       0.11502087
C        0.03718220       0.07631955      18.68402999      -0.00028308      -0.00026611       0.00274260
C        1.37774761       0.85058562      18.68708004       0.00111714       0.00062324      -0.00401118
C       -1.30357072       2.39731803      18.68749568       0.00111612       0.00035867      -0.00541577
C        0.03743785       3.17165454      18.68509164      -0.00009256      -0.00047668       0.00045997
C        2.71750413       0.07705872      18.68745411      -0.00018898       0.00130149      -0.00418524
C        4.05704169       0.85083466      18.68710814       0.00051653       0.00075076      -0.00124956
C        1.37817007       2.39765311      18.68595286       0.00045226       0.00111637       0.00026354
C        2.71783073       3.17139988      18.68238452       0.00020543       0.00121587      -0.00093562
Si      -0.89341603       4.64232588       5.05623624       0.00017741       0.00038772      -0.05605802
Si      -1.78683208       6.18976788      12.64850174      -0.00139251      -0.00041189      -0.05180310
Si      -1.78683208       6.18976788       2.52836107       0.00001851      -0.00025762       0.15807399
Si      -0.89341603       4.64232588      10.12062657      -0.00052373      -0.00103435      -0.07759075
Si      -2.67767880       4.64102942      15.18067145      -0.00457245      -0.00001054      -0.00145910
Si      -2.68024811       4.64232589       7.58805938      -0.00002700      -0.00032730      -0.09045604
C       -2.68024811       4.64232589       5.68435955      -0.00049571       0.00007893       0.08253498
C       -2.68024811       4.64232589      13.27662505       0.00130638      -0.00112846       0.05067927
C       -0.89341603       4.64232588       3.15844319       0.00203246       0.00307273       0.08476310
C       -1.78683208       6.18976788      10.75070869      -0.00017124       0.00214019       0.02377191
C       -1.78683208       6.18976788       0.63055283      -0.00260119      -0.00168664      -0.24048891
C       -0.89341603       4.64232588       8.22281833      -0.00089114      -0.00159743       0.11552044
Si      -0.89341603       7.73720981       5.05623624      -0.00003522       0.00010927      -0.05635524
Si       0.89341603       4.64232591      12.64850174       0.00201266      -0.00062144      -0.04870235
Si       0.89341603       4.64232591       2.52836107      -0.00031599      -0.00024528       0.15820358
Si      -0.89341603       7.73720981      10.12062657      -0.00059804       0.00155937      -0.07827055
Si      -2.68149020       7.74221515      15.18078997       0.00371216      -0.00559112      -0.00156683
Si      -2.68024811       7.73720982       7.58805938      -0.00027099       0.00001594      -0.09057508
C       -2.68024811       7.73720982       5.68435955       0.00084358      -0.00040058       0.08332714
C       -2.68024811       7.73720982      13.27662505      -0.00202217       0.00519260       0.05433667
C       -0.89341603       7.73720981       3.15844319       0.00069960       0.00165502       0.08213800
C        0.89341603       4.64232591      10.75070869       0.00257367       0.00091223       0.02308439
C        0.89341603       4.64232591       0.63055283      -0.00113977      -0.00347202      -0.23866188
C       -0.89341603       7.73720981       8.22281833      -0.00201060      -0.00301385       0.11495685
Si      -3.57366413       6.18976784       5.05623624       0.00000437       0.00023011      -0.05636809
Si      -4.46708018       7.73720984      12.64850174      -0.00157403      -0.00106932      -0.04959092
Si      -4.46708018       7.73720984       2.52836107      -0.00005528      -0.00027537       0.15790327
Si      -3.57366413       6.18976784      10.12062657       0.00076645      -0.00062761      -0.07824175
Si      -0.00173024       6.18657152      15.18172163       0.00292386       0.00525302      -0.00172264
Si       0.00000000       6.18976786       7.58805938      -0.00005374      -0.00032704      -0.09085430
C        0.00000000       6.18976786       5.68435955       0.00138428       0.00295960       0.07990552
C        0.00000000       6.18976786      13.27662505      -0.00121485      -0.00493960       0.07501451
C       -3.57366413       6.18976784       3.15844319       0.00150615       0.00067414       0.08232878
C       -4.46708018       7.73720984      10.75070869       0.00190210       0.00137991       0.02217911
C       -4.46708018       7.73720984       0.63055283      -0.00125367      -0.00170490      -0.23819111
C       -3.57366413       6.18976784       8.22281833      -0.00146681      -0.00357229       0.11479153
C       -2.64330793       4.71906991      18.68412318      -0.00023217      -0.00035456       0.00267318
C       -1.30246562       5.49288602      18.68729818       0.00134443       0.00041626      -0.00513784
C       -3.98437124       7.03937916      18.68390255       0.00132746       0.00048414       0.00013550
C       -2.64312063       7.81378858      18.68528964       0.00001131      -0.00048542       0.00092894
C        0.03765006       4.71941989      18.68630070       0.00007533       0.00108423      -0.00427137
C        1.37765013       5.49283860      18.68241287       0.00075616       0.00080476       0.00259656
C       -1.30229676       7.03970099      18.68755808       0.00057978       0.00096288      -0.00115751
C        0.03745994       7.81280685      18.68751995      -0.00000694       0.00113566      -0.00520777
Si       7.14732829      -0.00000002       5.05623624       0.00020235       0.00039621      -0.05593615
Si       6.25391224       1.54744198      12.64850174      -0.00138377       0.00047977      -0.05430016
Si       6.25391224       1.54744198       2.52836107       0.00001106      -0.00041266       0.15825834
Si       7.14732829      -0.00000002      10.12062657      -0.00005168      -0.00052502      -0.07744677
Si       5.36383302       0.00134242      15.18069831      -0.00667715      -0.00273720      -0.00144573
Si       5.36049621       0.00000000       7.58805938       0.00003805      -0.00005811      -0.09036913
C        5.36049621       0.00000000       5.68435955      -0.00076825       0.00073636       0.08227684
C        5.36049621       0.00000000      13.27662505       0.00427035       0.00285804       0.05152748
C        7.14732829      -0.00000002       3.15844319       0.00102947       0.00264412       0.08409873
C        6.25391224       1.54744198      10.75070869      -0.00024451       0.00332212       0.02303991
C        6.25391224       1.54744198       0.63055283      -0.00200803      -0.00284287      -0.23860146
C        7.14732829      -0.00000002       8.22281833      -0.00135831      -0.00188925       0.11474113
Si       7.14732829       3.09488391       5.05623624      -0.00008305       0.00007842      -0.05634315
Si       8.93416034       0.00000002      12.64850174       0.00004731      -0.00222709      -0.05835453
Si       8.93416034       0.00000002       2.52836107      -0.00019592      -0.00017201       0.15822929
Si       7.14732829       3.09488391      10.12062657      -0.00106906       0.00166350      -0.07805226
Si       5.35801240       3.10225766      15.18032120       0.00167764      -0.00573176      -0.00126550
Si       5.36049621       3.09488393       7.58805938      -0.00025917       0.00005605      -0.09028480
C        5.36049621       3.09488393       5.68435955       0.00057361       0.00031727       0.08215035
C        5.36049621       3.09488393      13.27662505      -0.00314189       0.00826147       0.04424637
C        7.14732829       3.09488391       3.15844319       0.00082995       0.00198232       0.08207604
C        8.93416034       0.00000002      10.75070869       0.00182754       0.00143673       0.02224930
C        8.93416034       0.00000002       0.63055283      -0.00164576      -0.00295497      -0.23944864
C        7.14732829       3.09488391       8.22281833      -0.00219392      -0.00306193       0.11532606
Si       4.46708018       1.54744195       5.05623624       0.00015221       0.00007919      -0.05646425
Si       3.57366413       3.09488395      12.64850174       0.00127372       0.00256493      -0.05618992
Si       3.57366413       3.09488395       2.52836107      -0.00003831      -0.00013061       0.15797809
Si       4.46708018       1.54744195      10.12062657       0.00148250       0.00054559      -0.07810497
Si       8.03854435       1.54292613      15.18147148       0.00507973       0.00694635      -0.00145344
Si       8.04074432       1.54744196       7.58805938      -0.00014758      -0.00027537      -0.09059205
C        8.04074432       1.54744196       5.68435955       0.00112691       0.00259964       0.07988520
C        8.04074432       1.54744196      13.27662505      -0.00501339      -0.00567957       0.06923055
C        4.46708018       1.54744195       3.15844319       0.00118091       0.00191701       0.08261649
C        3.57366413       3.09488395      10.75070869       0.00135703       0.00051628       0.02009780
C        3.57366413       3.09488395       0.63055283      -0.00125727      -0.00167636      -0.23878272
C        4.46708018       1.54744195       8.22281833      -0.00150744      -0.00352421       0.11572458
C        5.39785621       0.07673485      18.68600644      -0.00034221      -0.00082172      -0.00059341
C        6.73828567       0.85059657      18.68727598       0.00108758       0.00033656      -0.00475397
C        4.05678899       2.39785599      18.68433291       0.00106392       0.00041832      -0.00219855
C        5.39737921       3.17240095      18.68032602      -0.00021083      -0.00050445       0.00550473
C        8.07820147       0.07667913      18.68607765      -0.00003111       0.00109863      -0.00306450
C        9.41757256       0.85041208      18.68651378       0.00076619       0.00092020      -0.00001414
C        6.73824033       2.39767877      18.68582609       0.00055742       0.00078779       0.00048234
C        8.07791718       3.17066945      18.68668897      -0.00009359       0.00127938      -0.00442590
Si       4.46708018       4.64232588       5.05623624       0.00020646       0.00035507      -0.05605519
Si       3.57366413       6.18976788      12.64850174       0.00018049      -0.00131358      -0.06661420
Si       3.57366413       6.18976788       2.52836107       0.00001234      -0.00032704       0.15811410
Si       4.46708018       4.64232588      10.12062657      -0.00049237      -0.00017304      -0.07679834
Si       2.69056553       4.64543813      15.18025967      -0.00742432      -0.00068006      -0.00139457
Si       2.68024811       4.64232589       7.58805938       0.00020260       0.00000463      -0.09027272
C        2.68024811       4.64232589       5.68435955      -0.00094000      -0.00000360       0.08096892
C        2.68024811       4.64232589      13.27662505       0.01178568       0.00288709       0.04419392
C        4.46708018       4.64232588       3.15844319       0.00092997       0.00223275       0.08390924
C        3.57366413       6.18976788      10.75070869      -0.00195095       0.00283953       0.01982012
C        3.57366413       6.18976788       0.63055283      -0.00283027      -0.00290098      -0.23885008
C        4.46708018       4.64232588       8.22281833      -0.00029722      -0.00173832       0.11636402
Si       4.46708018       7.73720981       5.05623624      -0.00006788       0.00002365      -0.05631616
Si       6.25391224       4.64232591      12.64850174      -0.00168870      -0.00060215      -0.06049703
Si       6.25391224       4.64232591       2.52836107      -0.00019618      -0.00024734       0.15816424
Si       4.46708018       7.73720981      10.12062657      -0.00143365       0.00053582      -0.07790314
Si       2.68153139       7.73951930      15.18040203       0.00183140      -0.00680442      -0.00135754
Si       2.68024811       7.73720982       7.58805938      -0.00015529      -0.00013807      -0.09016525
C        2.68024811       7.73720982       5.68435955       0.00076285      -0.00026765       0.08211486
C        2.68024811       7.73720982      13.27662505       0.00083509       0.00315937       0.04563991
C        4.46708018       7.73720981       3.15844319      -0.00022960       0.00001800       0.08270210
C        6.25391224       4.64232591      10.75070869       0.00337329       0.00072197       0.02162555
C        6.25391224       4.64232591       0.63055283      -0.00121562      -0.00441870      -0.23998625
C        4.46708018       7.73720981       8.22281833      -0.00240604      -0.00373941       0.11503347
Si       1.78683208       6.18976784       5.05623624       0.00008330      -0.00005425      -0.05644883
Si       0.89341603       7.73720984      12.64850174       0.00159383       0.00060215      -0.05167660
Si       0.89341603       7.73720984       2.52836107      -0.00004937      -0.00008305       0.15776186
Si       1.78683208       6.18976784      10.12062657       0.00295368       0.00026997      -0.07795199
Si       5.35268186       6.18185970      15.18101814       0.00418421       0.00717389      -0.00148738
Si       5.36049621       6.18976786       7.58805938      -0.00035173      -0.00034633      -0.09051080
C        5.36049621       6.18976786       5.68435955       0.00116034       0.00240630       0.07957230
C        5.36049621       6.18976786      13.27662505      -0.00926523      -0.01070119       0.06077651
C        1.78683208       6.18976784       3.15844319       0.00108243       0.00069060       0.08210355
C        0.89341603       7.73720984      10.75070869       0.00041420       0.00152184       0.02240202
C        0.89341603       7.73720984       0.63055283      -0.00152158      -0.00088986      -0.23947615
C        1.78683208       6.18976784       8.22281833      -0.00257547      -0.00335658       0.11542736
C        2.71850752       4.71957436      18.67381882       0.00010722      -0.00046408       0.00811852
C        4.05798182       5.49291749      18.66782912       0.00091171       0.00052605       0.00394947
C        1.37703689       7.03936925      18.68467225       0.00131152       0.00035070      -0.00256622
C        2.71804215       7.81309590      18.68061982       0.00006428      -0.00051268       0.00531653
C        5.39668231       4.72004227      18.67523696       0.00016661       0.00101790       0.00338666
C        6.73630851       5.49285229      18.68178708       0.00072711       0.00072145       0.00471617
C        4.05822833       7.03839294      18.67536109       0.00027099       0.00084589       0.00732867
C        5.39723337       7.81209387      18.68190405      -0.00008536       0.00124930       0.00144882
C        4.05359961       5.49635003      22.85023117       0.00023731      -0.00018126       0.01659313
O        4.06011331       5.52052714      24.01901382       0.00142002       0.00076799       0.01834482
O        4.04677530       5.47212675      21.67435145       0.00077827      -0.00070911       0.01626248
