72
Lattice="8.315575849598094 0.0 0.0 4.157787924799047 7.20149657514819 0.0 0.0 0.0 28.31606583383784" Properties=species:S:1:pos:R:3:forces:R:3 energy=-556394.0801385475 free_energy=-556394.0801385475 pbc="T T T"
C        1.51555694       1.36424838      21.35608269      -0.00059727       0.00705151      -0.01613290
C        2.90090610       2.19326972      21.37346307       0.00001286       0.00576956      -0.01579969
C        2.90147571       3.76470650      21.35612676      -0.00057207       0.00750351      -0.01651625
C        4.28683984       4.59373781      21.37347055      -0.00010130       0.00623672      -0.01579686
C        4.28741445       6.16523280      21.35609849      -0.00051885       0.00708930      -0.01613496
C        5.67277608       6.99427409      21.37346058      -0.00011724       0.00598990      -0.01575855
C        4.28741362       1.36422427      21.35609350      -0.00051551       0.00710601      -0.01631391
C        5.67277691       2.19326140      21.37346557      -0.00015581       0.00582303      -0.01591307
C        5.67335069       3.76470317      21.35611179      -0.00048851       0.00753770      -0.01651497
C        7.05871232       4.59373698      21.37347305      -0.00020286       0.00627349      -0.01594572
C        7.05927944       6.16522531      21.35608601      -0.00053222       0.00700523      -0.01610436
C        8.44463026       6.99424748      21.37348053      -0.00007302       0.00626346      -0.01604805
C        7.05927362       1.36424090      21.35609100      -0.00041318       0.00707439      -0.01626891
C        8.44463276       2.19328801      21.37344893      -0.00015889       0.00566440      -0.01584545
C        8.44520154       3.76471648      21.35610930      -0.00044429       0.00736030      -0.01660058
C        9.83054987       4.59373531      21.37348635      -0.00003625       0.00633751      -0.01601849
C        9.83112281       6.16522199      21.35610930      -0.00041780       0.00694506      -0.01631879
C       11.21648611       6.99426411      21.37347804      -0.00014527       0.00611023      -0.01591539
Pt       3.00284674       1.20025026       7.49999997      -0.00050676       0.02382744      -0.67971663
Pt       5.77470508       1.20025026       7.49999997      -0.00086029       0.02391306      -0.68024730
Pt       8.54656425       1.20025026       7.49999997      -0.00074999       0.02405961      -0.68012672
Pt       4.38877633       3.60074995       7.49999997      -0.00055587       0.01955838      -0.68065020
Pt       7.16063467       3.60074995       7.49999997      -0.00072737       0.01978695      -0.68077258
Pt       9.93249301       3.60074995       7.49999997      -0.00082327       0.01973810      -0.68051470
Pt       5.77470508       6.00124964       7.49999997      -0.00041780       0.02308002      -0.68233273
Pt       8.54656425       6.00124964       7.49999997      -0.00075822       0.02326180      -0.68227051
Pt      11.31842259       6.00124964       7.49999997      -0.00093280       0.02323352      -0.68252505
Pt       1.61691716       2.00041655       9.76321283       0.00159794      -0.04281581       0.67761090
Pt       4.38877633       2.00041655       9.76321283       0.00051988      -0.04304335       0.67762684
Pt       7.16063467       2.00041655       9.76321283       0.00129506      -0.04238875       0.67685859
Pt       3.00284674       4.40091624       9.76321283       0.00107215      -0.04824752       0.67724374
Pt       5.77470508       4.40091624       9.76321283       0.00127090      -0.04754664       0.67693418
Pt       8.54656425       4.40091624       9.76321283       0.00106675      -0.04766182       0.67698997
Pt       4.38877633       6.80141676       9.76321283       0.00178692      -0.04049025       0.67510356
Pt       7.16063467       6.80141676       9.76321283       0.00130895      -0.04016912       0.67569517
Pt       9.93249301       6.80141676       9.76321283       0.00033784      -0.04046016       0.67512181
Pt       1.61962554       0.31727165      12.10622777       0.00407288       0.00698492      -0.00993037
Pt       4.39148138       0.31722758      12.10639159       0.00274517       0.00751611      -0.01051530
Pt       7.16335552       0.31725169      12.10624108       0.00360494       0.00753719      -0.00968895
Pt       3.00554348       2.71787362      12.10639242       0.00412096      -0.00050214      -0.01014480
Pt       5.77740349       2.71788693      12.10628016       0.00311901       0.00054096      -0.00841573
Pt       8.54930174       2.71789275      12.10627018       0.00321928      -0.00012856      -0.00927037
Pt       4.39146392       5.11851883      12.10620200       0.00438116      -0.00584926      -0.00825118
Pt       7.16334804       5.11851468      12.10626021       0.00308507      -0.00518077      -0.00841728
Pt       9.93521719       5.11848640      12.10638494       0.00297888      -0.00538852      -0.00992034
Pt       3.00635425       1.02338545      14.46186244       0.00241889       0.00003728       0.00027074
Pt       5.77829824       1.02335218      14.46184414       0.00056461       0.00137991       0.00096879
Pt       8.55012748       1.02337796      14.46175101       0.00132952       0.00079627       0.00117654
Pt       4.39230878       3.42413128      14.46180589       0.00298788      -0.00836328       0.00108398
Pt       7.16421702       3.42409635      14.46171359       0.00011236      -0.00748397       0.00143262
Pt       9.93604126       3.42410300      14.46177014       0.00125521      -0.00837203       0.00111586
Pt       5.77822839       5.82466756      14.46167367       0.00233019      -0.01079940       0.00395230
Pt       8.55012997       5.82463346      14.46171692       0.00040006      -0.00912536       0.00383197
Pt      11.32199579       5.82464178      14.46170028       0.00165630      -0.00950305       0.00446164
Pt       1.60605535       1.81558874      16.83197202      -0.00378106      -0.00519157       0.02131753
Pt       4.37791203       1.81559539      16.83203938      -0.00284981      -0.00482030       0.02148825
Pt       7.14981943       1.81558375      16.83199531      -0.00422921      -0.00443798       0.02145766
Pt       2.99197912       4.21627969      16.83194874      -0.00269606      -0.01041965       0.02204515
Pt       5.76385159       4.21629548      16.83199531      -0.00366742      -0.01104906       0.02135661
Pt       8.53574569       4.21624559      16.83181569      -0.00466552      -0.01027953       0.02285659
Pt       4.37791203       6.61673031      16.83205019      -0.00338306      -0.01052301       0.02277689
Pt       7.14978700       6.61672616      16.83197036      -0.00352293      -0.01043302       0.02308234
Pt       9.92165947       6.61669289      16.83194625      -0.00406080      -0.00961593       0.02379916
Pt       1.51827530       0.64285222      19.25424023      -0.00086029       0.02241359       0.02218476
Pt       4.29014528       0.64283393      19.25426684      -0.00007045       0.02215391       0.02275889
Pt       7.06202275       0.64281979      19.25425769      -0.00252714       0.02309673       0.02250358
Pt       2.90419907       3.04334692      19.25422859      -0.00059264       0.02257403       0.02135918
Pt       5.67607653       3.04334110      19.25427183      -0.00043400       0.02238197       0.02112753
Pt       8.44794319       3.04333861      19.25413213      -0.00220755       0.02324483       0.02216497
Pt       4.29013447       5.44389318      19.25434501      -0.00080141       0.01959515       0.02058142
Pt       7.06200113       5.44390316      19.25425270      -0.00048080       0.01936658       0.02156101
Pt       9.83387194       5.44387655      19.25423358      -0.00200006       0.02107045       0.02175539
