179
Lattice="10.720992125991367 0.0 0.0 -5.360496062995684 9.284647205911675 0.0 0.0 0.0 34.99999747733031" Properties=species:S:1:pos:R:3:forces:R:3 energy=-74887.77991882249 free_energy=-74887.77991882249 pbc="T T T"
Si       1.78683208      -0.00000002       5.05623624       0.00004191      -0.00007148      -0.05921842
Si       0.89341603       1.54744198      12.64850174      -0.00205997       0.00036690       0.02069018
Si       0.89341603       1.54744198       2.52836107       0.00008305       0.00010413       0.14630477
Si       1.78683208      -0.00000002      10.12062657       0.00041575       0.00054276      -0.07403363
Si      -0.01522535       0.00816872      15.19384553      -0.00134623       0.00088266       0.00306861
Si       0.00000000       0.00000000       7.58805938      -0.00025660       0.00018409      -0.09417591
C        0.00000000       0.00000000       5.68435955       0.00000797      -0.00004474       0.09186989
C        0.00000000       0.00000000      13.27662505      -0.01488463       0.00833217       0.19808910
C        1.78683208      -0.00000002       3.15844319       0.00111072      -0.00009359       0.09282582
C        0.89341603       1.54744198      10.75070869       0.00069240       0.00107549       0.02277972
C        0.89341603       1.54744198       0.63055283       0.00109195       0.00214661      -0.46409158
C        1.78683208      -0.00000002       8.22281833       0.00109195      -0.00008922       0.11054484
Si       1.78683208       3.09488391       5.05623624      -0.00009436       0.00011647      -0.05922690
Si       3.57366413       0.00000002      12.64850174       0.00139534      -0.00163985       0.02020321
Si       3.57366413       0.00000002       2.52836107       0.00014347       0.00002803       0.14618264
Si       1.78683208       3.09488391      10.12062657       0.00147427      -0.00063326      -0.07329161
Si      -0.00696817       3.08686415      15.19397419       0.00197769      -0.00111920       0.00200700
Si       0.00000000       3.09488393       7.58805938      -0.00017869      -0.00004217      -0.09449318
C        0.00000000       3.09488393       5.68435955       0.00006273       0.00134520       0.09154618
C        0.00000000       3.09488393      13.27662505      -0.00891247      -0.00621127       0.19956748
C        1.78683208       3.09488391       3.15844319       0.00052193       0.00107729       0.09279291
C        3.57366413       0.00000002      10.75070869       0.00120533       0.00007353       0.02274604
C        3.57366413       0.00000002       0.63055283       0.00266675      -0.00005348      -0.46402858
C        1.78683208       3.09488391       8.22281833       0.00022677       0.00127115       0.11037180
Si      -0.89341603       1.54744195       5.05623624       0.00000437       0.00015581      -0.05919502
Si      -1.78683208       3.09488395      12.64850174       0.00246337      -0.00046100       0.01728527
Si      -1.78683208       3.09488395       2.52836107      -0.00006762       0.00009565       0.14628703
Si      -0.89341603       1.54744195      10.12062657      -0.00039595      -0.00124236      -0.07227937
Si       2.68379557       1.55323656      15.19475324       0.00244538       0.00438039      -0.00090374
Si       2.68024811       1.54744196       7.58805938       0.00013267       0.00015684      -0.09406124
C        2.68024811       1.54744196       5.68435955       0.00115443       0.00070268       0.09193802
C        2.68024811       1.54744196      13.27662505       0.00353038       0.00407186       0.21413536
C       -0.89341603       1.54744195       3.15844319      -0.00051679       0.00094514       0.09283611
C       -1.78683208       3.09488395      10.75070869      -0.00191007       0.00208491       0.02223850
C       -1.78683208       3.09488395       0.63055283      -0.00136140       0.00225974      -0.46403938
C       -0.89341603       1.54744195       8.22281833      -0.00047771       0.00138582       0.10987789
C       -0.00070851      -0.00085277      18.95801959       0.00062478      -0.00010516      -0.00143982
C        1.33975354       0.77311511      18.95781160       0.00096956       0.00045817       0.00634471
C       -1.34112347       2.32025668      18.95899537      -0.00018203       0.00051756      -0.00286087
C       -0.00048540       3.09415217      18.95743926      -0.00034170       0.00105004       0.00307607
C        2.67944572      -0.00041850      18.95789086      -0.00078496       0.00163754       0.00559009
C        4.01907428       0.77370246      18.95742384       0.00084255       0.00139765       0.00395873
C        1.34023194       2.32040525      18.95746200       0.00086029       0.00110377       0.00376127
C        2.67980390       3.09393777      18.95654550      -0.00135291      -0.00080656      -0.00769660
Si      -0.89341603       4.64232588       5.05623624       0.00011827      -0.00001491      -0.05923436
Si      -1.78683208       6.18976788      12.64850174       0.00052656       0.00081170      -0.00899500
Si      -1.78683208       6.18976788       2.52836107       0.00009050       0.00000386       0.14625772
Si      -0.89341603       4.64232588      10.12062657      -0.00256339       0.00085515      -0.07313349
Si      -2.67275471       4.65111270      15.19404050      -0.00201189       0.00107395       0.00209005
Si      -2.68024811       4.64232589       7.58805938       0.00014810       0.00013961      -0.09397768
C       -2.68024811       4.64232589       5.68435955      -0.00000771       0.00001825       0.09188943
C       -2.68024811       4.64232589      13.27662505       0.00877955       0.00857797       0.20066792
C       -0.89341603       4.64232588       3.15844319       0.00000489       0.00059213       0.09263505
C       -1.78683208       6.18976788      10.75070869      -0.00068391      -0.00073971       0.01607119
C       -1.78683208       6.18976788       0.63055283       0.00123696      -0.00079319      -0.46418054
C       -0.89341603       4.64232588       8.22281833       0.00073251       0.00042809       0.11021599
Si      -0.89341603       7.73720981       5.05623624       0.00010773       0.00005888      -0.05923925
Si       0.89341603       4.64232591      12.64850174       0.00047694      -0.00105724       0.04602043
Si       0.89341603       4.64232591       2.52836107      -0.00002314       0.00006068       0.14621452
Si      -0.89341603       7.73720981      10.12062657      -0.00096596      -0.00097316      -0.07231433
Si      -2.66546173       7.72815700      15.19383135       0.00137605      -0.00065666       0.00313675
Si      -2.68024811       7.73720982       7.58805938       0.00036124      -0.00018820      -0.09420496
C       -2.68024811       7.73720982       5.68435955       0.00110352      -0.00067003       0.09183749
C       -2.68024811       7.73720982      13.27662505       0.01612750      -0.00949817       0.19791349
C       -0.89341603       7.73720981       3.15844319       0.00047797      -0.00034376       0.09265922
C        0.89341603       4.64232591      10.75070869       0.00020775       0.00048568       0.02856881
C        0.89341603       4.64232591       0.63055283       0.00004988       0.00150410      -0.46409698
C       -0.89341603       7.73720981       8.22281833       0.00086492      -0.00007019       0.10985784
Si      -3.57366413       6.18976784       5.05623624      -0.00008202       0.00000977      -0.05922253
Si      -4.46708018       7.73720984      12.64850174      -0.00055690      -0.00113051       0.04333594
Si      -4.46708018       7.73720984       2.52836107       0.00004397      -0.00011750       0.14638447
Si      -3.57366413       6.18976784      10.12062657       0.00317454      -0.00095259      -0.07320522
Si      -0.01581214       6.19840267      15.19402561      -0.00039132       0.00009873       0.00364145
Si       0.00000000       6.18976786       7.58805938      -0.00031727       0.00014578      -0.09428184
C        0.00000000       6.18976786       5.68435955       0.00000668       0.00001466       0.09193185
C        0.00000000       6.18976786      13.27662505      -0.01633550       0.00881708       0.20463796
C       -3.57366413       6.18976784       3.15844319       0.00065332      -0.00106058       0.09264199
C       -4.46708018       7.73720984      10.75070869       0.00171698       0.00090863       0.02798414
C       -4.46708018       7.73720984       0.63055283       0.00132643      -0.00200649      -0.46406792
C       -3.57366413       6.18976784       8.22281833      -0.00033733      -0.00072814       0.11026330
C       -2.68109651       4.64135902      18.95760540      -0.00065666      -0.00023783       0.00260890
C       -1.34042190       5.41532063      18.95903509      -0.00079293      -0.00038155      -0.00310024
C       -4.02155927       6.96235589      18.95817575      -0.00114748       0.00111869       0.00401015
C       -2.68098310       7.73627409      18.95820990      -0.00132952       0.00166350      -0.00314163
C       -0.00039312       4.64174558      18.95803548      -0.00085489      -0.00068494       0.00516817
C        1.33971045       5.41508172      18.95734418       0.00022471      -0.00085026       0.00681831
C       -1.34053420       6.96240427      18.95960883      -0.00062889       0.00082790      -0.00915750
C       -0.00066160       7.73609708      18.95889515       0.00011467       0.00002031      -0.00214430
Si       7.14732829      -0.00000002       5.05623624      -0.00019180       0.00007173      -0.05920993
Si       6.25391224       1.54744198      12.64850174      -0.00126421      -0.00008999       0.04570779
Si       6.25391224       1.54744198       2.52836107      -0.00001388       0.00003857       0.14626800
Si       7.14732829      -0.00000002      10.12062657       0.00188128      -0.00178383      -0.07313194
Si       5.35683280      -0.00989296      15.19395667      -0.00190339       0.00113797       0.00207899
Si       5.36049621       0.00000000       7.58805938      -0.00005039      -0.00022857      -0.09450321
C        5.36049621       0.00000000       5.68435955       0.00001800       0.00002571       0.09152484
C        5.36049621       0.00000000      13.27662505      -0.00251428      -0.01142598       0.19938082
C        7.14732829      -0.00000002       3.15844319      -0.00121382      -0.00008665       0.09274740
C        6.25391224       1.54744198      10.75070869      -0.00088909       0.00035687       0.02852690
C        6.25391224       1.54744198       0.63055283      -0.00122693       0.00079704      -0.46414248
C        7.14732829      -0.00000002       8.22281833      -0.00171801       0.00050368       0.11022371
Si       7.14732829       3.09488391       5.05623624      -0.00006531      -0.00002288      -0.05925030
Si       8.93416034       0.00000002      12.64850174       0.00039029       0.00082790      -0.00874689
Si       8.93416034       0.00000002       2.52836107      -0.00011673       0.00004217       0.14634873
Si       7.14732829       3.09488391      10.12062657       0.00076876       0.00142722      -0.07411925
Si       5.34790682       3.10161680      15.19483788      -0.00451923       0.00243046      -0.00421352
Si       5.36049621       3.09488393       7.58805938      -0.00018023       0.00008253      -0.09430884
C        5.36049621       3.09488393       5.68435955      -0.00004834       0.00003265       0.09182901
C        5.36049621       3.09488393      13.27662505      -0.01009415       0.00518874       0.21045868
C        7.14732829       3.09488391       3.15844319      -0.00059444       0.00038387       0.09267259
C        8.93416034       0.00000002      10.75070869      -0.00089552      -0.00126550       0.01598198
C        8.93416034       0.00000002       0.63055283      -0.00250528      -0.00008202      -0.46407332
C        7.14732829       3.09488391       8.22281833      -0.00091557      -0.00004859       0.11061606
Si       4.46708018       1.54744195       5.05623624       0.00017098      -0.00005656      -0.05923667
Si       3.57366413       3.09488395      12.64850174       0.00092688       0.00151387       0.00291409
Si       3.57366413       3.09488395       2.52836107       0.00003908       0.00000103       0.14629448
Si       4.46708018       1.54744195      10.12062657      -0.00129584       0.00087443      -0.07328801
Si       8.05601224       1.53825864      15.19402543       0.00041240      -0.00037024       0.00364660
Si       8.04074432       1.54744196       7.58805938       0.00020029      -0.00016584      -0.09425690
C        8.04074432       1.54744196       5.68435955      -0.00115751       0.00067234       0.09186063
C        8.04074432       1.54744196      13.27662505       0.01423517      -0.00866976       0.20447084
C        4.46708018       1.54744195       3.15844319       0.00065229       0.00031239       0.09275306
C        3.57366413       3.09488395      10.75070869       0.00070397       0.00050342       0.01739686
C        3.57366413       3.09488395       0.63055283       0.00133055       0.00068880      -0.46412757
C        4.46708018       1.54744195       8.22281833       0.00099193       0.00019489       0.11032244
C        5.35957835      -0.00057446      18.95739988       0.00106418       0.00013370       0.00331312
C        6.69981908       0.77332548      18.95810242      -0.00003008      -0.00133723       0.00452026
C        4.01897995       2.32068821      18.95643842       0.00117448      -0.00201497      -0.00694121
C        5.35901218       3.09428464      18.95578875       0.00257393      -0.00124441      -0.00433462
C        8.03994037      -0.00035555      18.95910509      -0.00075076      -0.00148250      -0.00386128
C        9.37981784       0.77309294      18.95961578       0.00004037      -0.00025043      -0.00925160
C        6.69933776       2.32054909      18.95735745       0.00017998       0.00009102       0.00663756
C        8.03981988       3.09383229      18.95812223      -0.00036715       0.00066772       0.00468969
Si       4.46708018       4.64232588       5.05623624       0.00003780       0.00003728      -0.05922819
Si       3.57366413       6.18976788      12.64850174       0.00056307      -0.00129249       0.02546009
Si       3.57366413       6.18976788       2.52836107      -0.00002108      -0.00013447       0.14629011
Si       4.46708018       4.64232588      10.12062657      -0.00095645      -0.00172830      -0.07254213
Si       2.69251814       4.63481196      15.19486718       0.00431765      -0.00265029      -0.00439067
Si       2.68024811       4.64232589       7.58805938       0.00017792      -0.00008922      -0.09430369
C        2.68024811       4.64232589       5.68435955       0.00004268      -0.00002288       0.09174390
C        2.68024811       4.64232589      13.27662505       0.00977636      -0.00616731       0.21084023
C        4.46708018       4.64232588       3.15844319      -0.00001311      -0.00070294       0.09269058
C        3.57366413       6.18976788      10.75070869      -0.00188153      -0.00046511       0.02322889
C        3.57366413       6.18976788       0.63055283      -0.00132952      -0.00221681      -0.46407512
C        4.46708018       4.64232588       8.22281833       0.00026739      -0.00020852       0.11023913
Si       4.46708018       7.73720981       5.05623624       0.00007379      -0.00014038      -0.05920865
Si       6.25391224       4.64232591      12.64850174      -0.00131692      -0.00016738       0.02542178
Si       6.25391224       4.64232591       2.52836107      -0.00004885      -0.00000617       0.14635105
Si       4.46708018       7.73720981      10.12062657      -0.00233122       0.00220061      -0.07317951
Si       2.68418028       7.74806155      15.19405833       0.00204171      -0.00122822       0.00202474
Si       2.68024811       7.73720982       7.58805938      -0.00001003       0.00016352      -0.09396019
C        2.68024811       7.73720982       5.68435955      -0.00116214      -0.00065743       0.09189534
C        2.68024811       7.73720982      13.27662505       0.00174809       0.01116759       0.20089854
C        4.46708018       7.73720981       3.15844319      -0.00069111      -0.00097573       0.09275255
C        6.25391224       4.64232591      10.75070869       0.00112537      -0.00154009       0.02327620
C        6.25391224       4.64232591       0.63055283      -0.00002031      -0.00153263      -0.46419288
C        4.46708018       7.73720981       8.22281833       0.00009667      -0.00166145       0.11028464
Si       1.78683208       6.18976784       5.05623624      -0.00008613      -0.00007893      -0.05925981
Si       0.89341603       7.73720984      12.64850174      -0.00178923       0.00190853       0.01756552
Si       0.89341603       7.73720984       2.52836107      -0.00005682      -0.00004577       0.14639836
Si       1.78683208       6.18976784      10.12062657       0.00079704       0.00140639      -0.07413365
Si       5.35747991       6.18449818      15.19465479      -0.00251197      -0.00413408      -0.00049494
Si       5.36049621       6.18976786       7.58805938      -0.00000206      -0.00011724      -0.09460040
C        5.36049621       6.18976786       5.68435955      -0.00003677      -0.00137631       0.09163566
C        5.36049621       6.18976786      13.27662505      -0.00125547      -0.00385588       0.21274747
C        1.78683208       6.18976784       3.15844319      -0.00053299      -0.00023628       0.09262656
C        0.89341603       7.73720984      10.75070869       0.00095902      -0.00096134       0.02238942
C        0.89341603       7.73720984       0.63055283      -0.00121767      -0.00069780      -0.46423864
C        1.78683208       6.18976784       8.22281833      -0.00074999      -0.00080476       0.11061863
C        2.67977995       4.64127614      18.95597042      -0.00157249       0.00022163      -0.00567442
C        4.01970555       5.41498126      18.95693743       0.00026791       0.00085721      -0.00551759
C        1.33926000       6.96252486      18.95801344       0.00039698      -0.00096905       0.00544251
C        2.67943913       7.73636392      18.95758857      -0.00068751      -0.00183705       0.00247623
C        5.35914700       4.64158387      18.95684761       0.00171133       0.00073662      -0.00482365
C        6.69896360       5.41500765      18.95772420      -0.00093357       0.00030519       0.00427703
C        4.01985419       6.96194730      18.95771833       0.00006582      -0.00150487       0.00425209
C        5.35972994       7.73588574      18.95808003       0.00024863      -0.00031316       0.00483239
C        4.03721418       3.89174134      23.30377673      -0.00157454      -0.00306244      -0.00986301
O        4.08895359       3.98142322      24.47307622       0.00128349       0.00198643       0.00046023
O        3.98556919       3.80228615      22.12734335       0.00107986       0.00180003       0.01073127
