101
Lattice="17.265850017958673 -0.00010359510010775204 0.0 -8.633011338229426 14.952692293502695 0.0 -0.0 0.0 15.000000722551901" Properties=species:S:1:pos:R:3:forces:R:3 energy=-26515.5845131051 free_energy=-26515.5845131051 pbc="T T T"
C        1.20592319       0.66515594       5.02017531      -0.00027691      -0.01191732       0.00055510
C       -0.02690557       1.37693249       5.02017499      -0.01013657      -0.00603515       0.00054482
C       -0.02649561       2.80094624       5.01218498      -0.00694712       0.00261713       0.00646607
C       -1.25973348       3.51261140       5.00989906      -0.00640796      -0.00735156      -0.00258833
C       -1.26012039       4.93647768       5.00042417      -0.00713790       0.00972340       0.00428963
C       -2.49363431       5.64826016       4.99857107       0.00233945       0.00046691       0.00779636
C       -2.49440631       7.07236312       4.99522461       0.00146553       0.00406980      -0.00713378
C       -3.72766314       7.78448147       4.99693087       0.00251351       0.00280045       0.00023397
C       -3.72825549       9.20882445       4.99833902      -0.00142928      -0.00422587      -0.00254539
C       -4.96152391       9.92094695       5.00335823       0.00346945      -0.00385871       0.00181366
C       -4.96184072      11.34514516       5.00857078      -0.00530907       0.00319588       0.00080373
C       -6.19512355      12.05733504       5.01483883       0.00880731      -0.00991289       0.00341391
C       -6.19478562      13.48156380       5.01896219      -0.00119376      -0.00593231      -0.00104850
C       -7.42772609      14.19352305       5.02269228      -0.00093665      -0.00158688       0.00221192
C        3.67187750       0.66533168       5.00992256      -0.00314832      -0.00926908      -0.00263127
C        2.43894208       1.37751863       5.01218716       0.00576750      -0.00459379       0.00651826
C        2.43961554       2.80159168       5.00393255      -0.00731119      -0.00600018       0.00156503
C        1.20644324       3.51356783       5.00393516      -0.00149998      -0.00935624       0.00152569
C        1.20627528       4.93744237       4.99352085      -0.00668255       0.00100119      -0.00413356
C       -0.02735967       5.64911092       4.99306318       0.00458119      -0.00442358       0.00356869
C       -0.02798167       7.07312379       4.98706796      -0.00156426      -0.00222349      -0.00207462
C       -1.26165137       7.78481543       4.99009031       0.00940381       0.00489050       0.00559832
C       -1.26213378       9.20903121       4.98951752       0.00579527      -0.00294546       0.00006402
C       -2.49539895       9.92113914       4.99448405       0.00475011       0.00181494       0.00501262
C       -2.49567970      11.34534130       4.99704938       0.00184837      -0.00089294       0.00476760
C       -3.72895205      12.05755414       5.00555483       0.01267862      -0.00738267      -0.00336892
C       -3.72854782      13.48163330       5.00788606      -0.00727699      -0.00237596      -0.00244203
C       -4.96177210      14.19387315       5.01391846       0.01409942      -0.00379649      -0.00077390
C        6.13834529       0.66456188       4.99861238      -0.00098370       0.00219238       0.00776859
C        4.90516855       1.37693215       5.00045767       0.01205256      -0.00132566       0.00428269
C        4.90594440       2.80085563       4.99308233      -0.00627246       0.00170978       0.00356509
C        3.67280553       3.51338638       4.99351665       0.00424129      -0.00534018      -0.00406131
C        3.67288396       4.93726519       4.98024882      -0.00765237       0.00173190      -0.00781898
C        2.43934708       5.64945026       4.98025517       0.00532424      -0.00571556      -0.00785138
C        2.43908968       7.07339468       4.96690499      -0.00132823      -0.00085155      -0.00606138
C        1.20512133       7.78508809       4.97755576       0.00873404      -0.00023886      -0.01015252
C        1.20456884       9.20902149       4.97835743       0.00691627      -0.00129661      -0.01589893
C       -0.02892734       9.92109435       4.98619765       0.00474240      -0.00031316       0.00036638
C       -0.02909309      11.34518277       4.98945294       0.00860394      -0.00223815       0.00287295
C       -1.26237566      12.05727600       4.99390994       0.00452077      -0.00303082       0.00388545
C       -1.26207673      13.48124555       4.99677492       0.00623955       0.00018178       0.00558778
C       -2.49528456      14.19341668       5.00164887       0.00864739      -0.00363348      -0.00453517
C        8.60537376       0.66396669       4.99696150       0.00075513       0.00354478       0.00031702
C        7.37202844       1.37594622       4.99525671       0.00320025       0.00328561      -0.00708982
C        7.37265460       2.79977303       4.99012346      -0.00071348       0.01057186       0.00549728
C        6.13947753       3.51232571       4.98709318      -0.00093537      -0.00255259      -0.00212990
C        6.13950625       4.93620841       4.97755490      -0.00473906       0.00747523      -0.01012732
C        4.90617885       5.64901709       4.96689330      -0.00002725      -0.00169127      -0.00600841
C        4.90561524       7.07262582       4.94621314      -0.00004757       0.00436522       0.00951282
C        3.67224882       7.78471469       4.94622059       0.00374533       0.00210728       0.00946912
C        3.67167899       9.20833849       4.94854172       0.00343654       0.00342857       0.01487075
C        2.43830900       9.92040522       4.97006706       0.00865716      -0.00064175      -0.01023556
C        2.43796363      11.34448240       4.98447832       0.00356586       0.00204763      -0.01077806
C        1.20459329      12.05684747       4.99159543       0.00266752      -0.00591225      -0.00590120
C        1.20500690      13.48081801       4.99692546       0.00342342      -0.00441690       0.00029748
C       -0.02830200      14.19287462       4.99696699       0.00116317      -0.00416107      -0.00067620
C       11.07252841       0.66363752       5.00342445      -0.00536332       0.00113668       0.00169950
C        9.83917511       1.37562468       4.99836906      -0.00260093      -0.00341468      -0.00253665
C        9.83962864       2.79946752       4.99447348      -0.00089012       0.00520700       0.00510827
C        8.60629419       3.51146230       4.98951964      -0.00529030       0.00341674       0.00006659
C        8.60635385       4.93548175       4.98618460      -0.00258576       0.00415002       0.00036278
C        7.37293893       5.64769665       4.97835063      -0.00463493       0.00515403      -0.01593287
C        7.37213666       7.07183792       4.97005365      -0.00476683       0.00736235      -0.01025484
C        6.13879057       7.78394506       4.94853378       0.00111920       0.00462490       0.01494659
C        6.13829831       9.20766365       4.95378978      -0.00363040       0.00708699       0.01098530
C        4.90489570       9.91977664       4.95378865       0.00786372       0.00030005       0.01098247
C        4.90489190      11.34345454       4.98204234      -0.00269426       0.00333215      -0.00764389
C        3.67152869      12.05610231       4.99055485       0.00908191      -0.00174141      -0.00633443
C        3.67220258      13.48023583       5.00295970      -0.00866513      -0.00343037       0.00225409
C        2.43873928      14.19240405       5.00166460       0.00681368      -0.00204557       0.00310692
C       13.53948187       0.66349826       5.01487420      -0.01295836       0.00267652       0.00337097
C       12.30606919       1.37546526       5.00860961       0.00549805      -0.00316349       0.00076387
C       12.30658510       2.79938175       5.00554214      -0.01274084       0.00750634      -0.00333986
C       11.07315794       3.51132880       4.99701573      -0.00169976       0.00097059       0.00484319
C       11.07305511       4.93536895       4.99386287      -0.00479819       0.00251197       0.00391193
C        9.83972979       5.64738357       4.98941599      -0.00641876       0.00633571       0.00279993
C        9.83919720       7.07162375       4.99153971      -0.00637299      -0.00066617      -0.00584000
C        8.60559085       7.78357910       4.98444643      -0.00004242       0.00417830      -0.01082537
C        8.60508238       9.20769391       4.99052539      -0.00600815       0.00687539      -0.00634651
C        7.37123449       9.91950156       4.98204536       0.00427394      -0.00061141      -0.00773285
C        7.37137419      11.34366077       5.00182985       0.00263667       0.00556670      -0.01325892
C        6.13817282      12.05565508       5.00182427       0.00357589       0.00513166      -0.01316996
C        6.13885742      13.47993277       5.01487586      -0.00539803      -0.00057387       0.00217695
C        4.90574322      14.19207327       5.01209329       0.00162648       0.00392170       0.00007251
C       16.00576775       0.66411982       5.02269316      -0.00092200      -0.00171647       0.00219624
C       14.77272723       1.37590435       5.01896358      -0.00463570      -0.00401478      -0.00101199
C       14.77309124       2.79988258       5.01389901      -0.01030910       0.01038674      -0.00076747
C       13.53966575       3.51177490       5.00785702       0.00155346      -0.00760738      -0.00243689
C       13.53945050       4.93570704       5.00160864      -0.00735130       0.00560732      -0.00455908
C       12.30609483       5.64761318       4.99673089      -0.00309535       0.00573073       0.00556078
C       12.30548876       7.07191700       4.99692218      -0.00404846      -0.00138043      -0.00075385
C       11.07218098       7.78396476       4.99685551      -0.00562686       0.00116445       0.00032807
C       11.07156173       9.20821290       5.00158296      -0.00517794       0.00457913       0.00314626
C        9.83807616       9.92034130       5.00289921       0.00147813      -0.00897958       0.00229882
C        9.83777311      11.34454563       5.01205568       0.00251608       0.00329153       0.00008845
C        8.60448670      12.05639107       5.01487428       0.00235564      -0.00494295       0.00209571
C        8.60497780      13.48067248       5.02247061       0.00631077      -0.00242249       0.00126935
C        7.37207202      14.19249504       5.02247040      -0.00525688       0.00436522       0.00128761
C        4.92755103       8.53528240       9.20460519       0.00887211       0.01307894       0.01257192
O        4.91647986       8.51627812       8.02730558      -0.00561272      -0.00859854       0.00365945
O        4.94011507       8.55651182      10.38085686      -0.00417753      -0.00612205       0.02381587
