48
Lattice="8.315575849598094 0.0 0.0 4.157787924799047 7.20149657514819 0.0 0.0 0.0 19.999999365264614" Properties=species:S:1:pos:R:3:forces:R:3 energy=-281861.42455141735 free_energy=-281861.42455141735 pbc="T T T"
Pt       3.00284680       1.20024997       4.60199115       0.00712581      -0.11487200      -0.70496898
Pt       5.77470538       1.20024997       4.60199115       0.00698414      -0.11495634      -0.70293909
Pt       8.54656396       1.20024997       4.60199115       0.00669952      -0.11510058      -0.70463987
Pt       4.38877609       3.60074992       4.60199115       0.00742303      -0.11379497      -0.70242256
Pt       7.16063467       3.60074992       4.60199115       0.00629277      -0.11387673      -0.70202918
Pt       9.93249325       3.60074992       4.60199115       0.00695792      -0.11523402      -0.70441979
Pt       5.77470538       6.00124987       4.60199115       0.00645013      -0.10955059      -0.71249382
Pt       8.54656396       6.00124987       4.60199115       0.00564589      -0.11539677      -0.70583492
Pt      11.31842254       6.00124987       4.60199115       0.00758064      -0.11542788      -0.70589586
Pt       1.61691751       2.00041662       6.86520421      -0.01019365       0.11454856       0.70325996
Pt       4.38877609       2.00041662       6.86520421      -0.00901969       0.11551889       0.70151856
Pt       7.16063467       2.00041662       6.86520421      -0.01126015       0.11608582       0.70182477
Pt       3.00284680       4.40091657       6.86520421      -0.00828744       0.11270302       0.70476817
Pt       5.77470538       4.40091657       6.86520421      -0.00990697       0.11843170       0.69989208
Pt       8.54656396       4.40091657       6.86520421      -0.01153551       0.11210961       0.70613266
Pt       4.38877609       6.80141652       6.86520421      -0.00910505       0.11435110       0.70363586
Pt       7.16063467       6.80141652       6.86520421      -0.01106963       0.11372272       0.70567603
Pt       9.93249325       6.80141652       6.86520421      -0.00966889       0.11181213       0.70462419
Pt       1.58586851       0.84237983       9.28209141      -0.00164293      -0.00116600       0.00008433
Pt       4.35690582       0.84055573       9.28148803      -0.00187691       0.00038001       0.00101147
Pt       7.13017117       0.84044007       9.28139704       0.00070602       0.00140254       0.00210908
Pt       2.97164887       3.24265515       9.28205472      -0.00201857      -0.00177766      -0.00142619
Pt       5.74354120       3.23937304       9.28026190      -0.00037512       0.00054816       0.00995223
Pt       8.51561967       3.24241387       9.28231600      -0.00052708      -0.00006479      -0.00464238
Pt       4.35833665       5.64227463       9.28170254      -0.00272023      -0.00058544       0.00214841
Pt       7.12897784       5.64211509       9.28203603       0.00021983       0.00012316      -0.00219752
Pt       9.90140124       5.64233767       9.28187674      -0.00100890       0.00235179       0.00417779
C        1.58324820       1.55251612      11.38029295       0.00234845      -0.00010284       0.00023526
C        2.96939922       2.37982432      11.40394665       0.00077210      -0.00003471       0.00203529
C        2.96966934       3.95283884      11.38106055       0.00131640      -0.00011416       0.00004962
C        4.35537343       4.77940365      11.40344236       0.00071220      -0.00013601      -0.00139714
C        4.35541433       6.35312008      11.38044603       0.00201806      -0.00052065      -0.00041086
C        5.74072110       7.18039713      11.40491481       0.00235564      -0.00144805      -0.00233559
C        4.35524993       1.55322386      11.37721891      -0.00092765      -0.00173781       0.00150718
C        5.74066087       2.38163122      11.39117547       0.00212990      -0.00164473      -0.00985350
C        5.74095728       3.95219741      11.37554573       0.00265569       0.00052322      -0.00150435
C        7.12605028       4.77946816      11.40340553       0.00353887      -0.00028591      -0.00057824
C        7.12660101       6.35331573      11.38040255       0.00277473      -0.00164319       0.00029979
C        8.51289475       7.18107282      11.40344590       0.00010670       0.00074485       0.00324859
C        7.12670985       1.55310348      11.37732726       0.00558289      -0.00088215       0.00088343
C        8.51204132       2.37973193      11.40396679       0.00351444       0.00043786       0.00255670
C        8.51240706       3.95290163      11.38100888       0.00282127      -0.00056281      -0.00000206
C        9.89855251       4.77990412      11.40526074       0.00155886       0.00110815      -0.00370162
C        9.89885727       6.35348297      11.38012684       0.00160180       0.00278270       0.00094797
C       11.28414421       7.18089029      11.40361289       0.00347485       0.00159974       0.00203374
C        5.72491517       2.86431719      15.61265735       0.00103333      -0.00091763       0.00342240
O        5.76175963       2.82289925      16.78124496       0.00085823      -0.00152029       0.00177072
O        5.68820460       2.90564378      14.43817454      -0.00211602       0.00206948       0.00388802
