101
Lattice="17.265850017958673 -0.00010359510010775204 0.0 -8.633011338229426 14.952692293502695 0.0 -0.0 0.0 15.000000722551901" Properties=species:S:1:pos:R:3:forces:R:3 energy=-26515.654300508617 free_energy=-26515.654300508617 pbc="T T T"
C        1.20515554       0.66346187       5.01558581      -0.00218518      -0.00005451      -0.00130895
C       -0.02820864       1.37548408       5.01547876       0.00215407      -0.00066489      -0.00142542
C       -0.02825698       2.79950472       5.00803293      -0.00048542       0.00229882      -0.00041266
C       -1.26156143       3.51157236       4.99949056       0.00376949      -0.00225203       0.00210136
C       -1.26146361       4.93559515       4.99771735      -0.00203169       0.00336557       0.00663833
C       -2.49483113       5.64760723       4.99548684       0.00106341       0.00167867      -0.00254539
C       -2.49483076       7.07174776       4.99986506       0.00186508      -0.00079190      -0.00161800
C       -3.72808098       7.78379793       5.00292216      -0.00106418       0.00211576      -0.00993269
C       -3.72797022       9.20796953       5.00192225      -0.00010670      -0.00514658      -0.00048800
C       -4.96120284       9.91996890       5.00506994      -0.00256159      -0.00021083      -0.00165810
C       -4.96126429      11.34401830       5.00002432      -0.00155320      -0.00308738       0.00167919
C       -6.19454377      12.05601675       5.00833631       0.00008613      -0.00018461       0.00120199
C       -6.19457903      13.48005802       5.00632305      -0.00274054      -0.00099013       0.01365384
C       -7.42782669      14.19210486       5.01866169       0.00014810       0.00061989      -0.01143112
C        3.67174190       0.66339679       4.99977536      -0.00310332       0.00069137       0.00208079
C        2.43842528       1.37539825       5.00827061       0.00205714       0.00204763      -0.00060395
C        2.43843553       2.79950555       5.00942126      -0.00260196       0.00220035       0.00205405
C        1.20504443       3.51154969       5.00930429       0.00375175      -0.00122822       0.00206537
C        1.20519042       4.93560808       5.00866119      -0.00574230       0.00319691      -0.00155809
C       -0.02813059       5.64774188       5.00384861       0.00049468      -0.00251531       0.00149690
C       -0.02815209       7.07184807       5.00448742      -0.00273977      -0.00031882       0.00177612
C       -1.26151500       7.78385221       5.00182159      -0.00005579       0.00058544      -0.00239113
C       -1.26143226       9.20798590       5.00024509       0.00236516      -0.00522217       0.00244023
C       -2.49467775       9.91998454       4.99766229      -0.00107626       0.00061398      -0.00219212
C       -2.49468747      11.34406167       4.99251905       0.00118425      -0.00503731       0.00285007
C       -3.72802374      12.05591419       4.99087406       0.00085489       0.00312852       0.01401688
C       -3.72807279      13.47994271       4.98983361       0.00008536       0.00005734       0.00222323
C       -4.96134306      14.19197887       4.99607084       0.00231965       0.00393225       0.00800204
C        6.13819723       0.66337070       4.99584179       0.00246492       0.00049237      -0.00229702
C        4.90493978       1.37548312       4.99802449       0.00226077       0.00108578       0.00660208
C        4.90497615       2.79965882       5.00392347      -0.00046640      -0.00107369       0.00104541
C        3.67164730       3.51166993       5.00859312       0.00428629      -0.00362654      -0.00140279
C        3.67186655       4.93576442       5.00997772      -0.00428731       0.00013113      -0.00237570
C        2.43842916       5.64781175       5.01046473       0.00185119      -0.00509233      -0.00239884
C        2.43834832       7.07183710       5.00807789      -0.00580504       0.00143956       0.00021289
C        1.20509947       7.78395463       5.00700011      -0.00019875      -0.00125933      -0.00271149
C        1.20520394       9.20797752       5.00515050      -0.00016069      -0.00015298      -0.00149175
C       -0.02809827       9.91990205       5.00194941      -0.00143159       0.00258550       0.00364325
C       -0.02805719      11.34395446       5.00121476       0.00147427      -0.00254925       0.00387542
C       -1.26132301      12.05588560       4.99523108      -0.00280276       0.00405617      -0.00195995
C       -1.26151356      13.47997455       4.99567491       0.00424232      -0.00127784       0.00172932
C       -2.49482684      14.19192254       4.99138351       0.00176198       0.00568522       0.00492623
C        8.60477798       0.66340886       5.00360700       0.00385485      -0.00051242      -0.01016537
C        7.37154901       1.37542393       5.00044744      -0.00376024       0.00215458      -0.00150024
C        7.37150559       2.79956996       5.00219835       0.00266032       0.00007276      -0.00216076
C        6.13827782       3.51174166       5.00433351      -0.00113771      -0.00250785       0.00184837
C        6.13825830       4.93578249       5.00581008       0.00115263       0.00021803      -0.00317917
C        4.90508539       5.64776527       5.00621204       0.00232711      -0.00564151      -0.00146604
C        4.90524113       7.07172225       4.99989413      -0.00314549       0.00192498      -0.01298227
C        3.67169152       7.78412502       5.00206689       0.00250837      -0.00371961      -0.01161676
C        3.67130728       9.20814793       4.99966093      -0.00170824       0.00278065      -0.00896878
C        2.43836680       9.91992464       5.00494321       0.00164216       0.00161311       0.00268989
C        2.43841057      11.34381066       5.01076819      -0.00081838       0.00003420      -0.00126267
C        1.20525554      12.05584321       5.00821092      -0.00348333       0.00337586       0.00032576
C        1.20510932      13.47996257       5.00970529       0.00203811      -0.00170927      -0.00609557
C       -0.02813210      14.19195000       5.00367586      -0.00357589       0.00393893      -0.00445135
C       11.07132520       0.66351081       5.00561842       0.00086826      -0.00288555      -0.00157531
C        9.83811574       1.37554028       5.00274756      -0.00545048      -0.00180440      -0.00068083
C        9.83802517       2.79962387       4.99840790       0.00194581      -0.00090426      -0.00210882
C        8.60481923       3.51167036       5.00062516      -0.00756264      -0.00063583       0.00270377
C        8.60457019       4.93572423       5.00168808       0.00474626       0.00044686       0.00421661
C        7.37140676       5.64782083       5.00392162      -0.00176378      -0.00091891      -0.00236927
C        7.37133767       7.07162153       5.00290626       0.00245052       0.00314934       0.00033733
C        6.13845841       7.78342934       4.99734907       0.00194118      -0.00161414      -0.00889370
C        6.13805739       9.20752310       5.00469449      -0.00073251       0.00484576      -0.00434851
C        4.90446781       9.91995978       5.00409310       0.00432074       0.00061141      -0.00418550
C        4.90464029      11.34391246       5.01662198      -0.00055227       0.00212527      -0.00060498
C        3.67147043      12.05588897       5.01668423       0.00179154       0.00061886      -0.00041780
C        3.67155288      13.48002638       5.01711667      -0.00079241      -0.00288966       0.00659257
C        2.43831374      14.19213390       5.01231738      -0.00148995      -0.00169101      -0.00276625
C       13.53783653       0.66340142       5.00821866      -0.00165708      -0.00056641       0.00133389
C       12.30458653       1.37546188       5.00037818      -0.00079807      -0.00229111       0.00161234
C       12.30448851       2.79942481       4.99137477       0.00118888       0.00222812       0.01342707
C       11.07133487       3.51160380       4.99312444      -0.00498974      -0.00105441       0.00295651
C       11.07108489       4.93563958       4.99551861       0.00461590      -0.00012290      -0.00216487
C        9.83788044       5.64770935       5.00112368      -0.00365508      -0.00032113       0.00363220
C        9.83776467       7.07171511       5.00787810       0.00529802      -0.00078033       0.00023860
C        8.60448283       7.78359136       5.00990669      -0.00058853      -0.00088549      -0.00144393
C        8.60476383       9.20760121       5.01695023       0.00022960       0.00190802      -0.00054225
C        7.37154355       9.91975636       5.01783221       0.00147967       0.00022651      -0.00067929
C        7.37136443      11.34382826       5.02632502      -0.00023731       0.00259296      -0.00423692
C        6.13789148      12.05583967       5.02572334       0.00297528       0.00132078      -0.00410682
C        6.13806457      13.48000106       5.02631834      -0.00174295      -0.00027716       0.00279453
C        4.90480872      14.19205491       5.01878779       0.00071477      -0.00104233      -0.00275468
C       16.00437109       0.66341043       5.01847951      -0.00073688      -0.00064920      -0.01122981
C       14.77107278       1.37538121       5.00612209       0.00212245      -0.00203297       0.01391584
C       14.77103764       2.79936396       4.99592823       0.00031187       0.00371267       0.00797582
C       13.53772911       3.51139118       4.98994809       0.00159614       0.00034890       0.00206511
C       13.53771541       4.93540524       4.99128561       0.00220601       0.00483007       0.00506893
C       12.30446408       5.64753702       4.99567078      -0.00215741       0.00241992       0.00166659
C       12.30440087       7.07167050       5.00336906       0.00393019      -0.00072017      -0.00451589
C       11.07115946       7.78370506       5.00950042      -0.00229034       0.00059701      -0.00646761
C       11.07138880       9.20780716       5.01207253      -0.00095876      -0.00247700      -0.00297579
C        9.83809484       9.91981045       5.01733170      -0.00252662      -0.00134880       0.00640205
C        9.83802896      11.34390988       5.01916410      -0.00111817      -0.00110995      -0.00276496
C        8.60472250      12.05593769       5.02672289       0.00099373      -0.00059547       0.00320462
C        8.60474190      13.48003343       5.02754668      -0.00176403      -0.00116111      -0.00702708
C        7.37135523      14.19204965       5.02743995       0.00083381      -0.00106804      -0.00703634
C        5.03706601       8.51436215       8.38488516       0.00934493      -0.01105394       0.00953674
O        4.19039603       9.33190328       8.40345594      -0.02331605       0.02326103       0.00580632
O        5.88366848       7.69652019       8.36638955       0.01508055      -0.01363610       0.01528392
