179
Lattice="10.720992125991367 0.0 0.0 -5.360496062995684 9.284647205911675 0.0 0.0 0.0 34.99999747733031" Properties=species:S:1:pos:R:3:forces:R:3 energy=-74050.71939191016 free_energy=-74050.71939191016 pbc="T T T"
Si       1.78683208      -0.00000002       5.05623624       0.00008742       0.00028539      -0.05573817
Si       0.89341603       1.54744198      12.64850174      -0.00197486      -0.00021109      -0.07180371
Si       0.89341603       1.54744198       2.52836107       0.00009410      -0.00028668       0.15867717
Si       1.78683208      -0.00000002      10.12062657       0.00031522       0.00102021      -0.07701045
Si       0.00749665       0.01145550      15.18089487      -0.00212887       0.00021854      -0.00080861
Si       0.00000000       0.00000000       7.58805938       0.00015067       0.00015632      -0.09012565
C        0.00000000       0.00000000       5.68435955       0.00026894       0.00036613       0.08153405
C        0.00000000       0.00000000      13.27662505       0.00766189       0.01037749       0.05548852
C        1.78683208      -0.00000002       3.15844319       0.00171904       0.00256442       0.08354208
C        0.89341603       1.54744198      10.75070869      -0.00033039       0.00244692       0.01865592
C        0.89341603       1.54744198       0.63055283      -0.00332109      -0.00325630      -0.23844976
C        1.78683208      -0.00000002       8.22281833      -0.00138300      -0.00224457       0.11589633
Si       1.78683208       3.09488391       5.05623624      -0.00004088       0.00018126      -0.05627836
Si       3.57366413       0.00000002      12.64850174       0.00003240      -0.00187793      -0.07055981
Si       3.57366413       0.00000002       2.52836107      -0.00029182      -0.00016918       0.15867255
Si       1.78683208       3.09488391      10.12062657      -0.00133774      -0.00003728      -0.07807695
Si      -0.00842909       3.08362268      15.18079116       0.00356123       0.00269554      -0.00120790
Si       0.00000000       3.09488393       7.58805938      -0.00022369      -0.00025994      -0.08960912
C        0.00000000       3.09488393       5.68435955       0.00065717       0.00103950       0.08089230
C        0.00000000       3.09488393      13.27662505      -0.00827124      -0.01031964       0.05151745
C        1.78683208       3.09488391       3.15844319       0.00189362       0.00189927       0.08275790
C        3.57366413       0.00000002      10.75070869       0.00201163       0.00058056       0.01950799
C        3.57366413       0.00000002       0.63055283      -0.00092843      -0.00309304      -0.23875290
C        1.78683208       3.09488391       8.22281833      -0.00215561      -0.00245386       0.11619998
Si      -0.89341603       1.54744195       5.05623624       0.00012316      -0.00000668      -0.05605185
Si      -1.78683208       3.09488395      12.64850174      -0.00026122      -0.00036844      -0.07793528
Si      -1.78683208       3.09488395       2.52836107      -0.00012778      -0.00028925       0.15863321
Si      -0.89341603       1.54744195      10.12062657       0.00224689       0.00243175      -0.07705185
Si       2.67290178       1.53603587      15.18158475       0.00295908       0.00338949       0.00019643
Si       2.68024811       1.54744196       7.58805938      -0.00038104      -0.00056539      -0.09006806
C        2.68024811       1.54744196       5.68435955       0.00205868       0.00297271       0.07927534
C        2.68024811       1.54744196      13.27662505      -0.00863196      -0.01053124       0.07115708
C       -0.89341603       1.54744195       3.15844319       0.00044686       0.00234202       0.08195263
C       -1.78683208       3.09488395      10.75070869       0.00225486       0.00342728       0.01534229
C       -1.78683208       3.09488395       0.63055283      -0.00196124      -0.00219906      -0.23907943
C       -0.89341603       1.54744195       8.22281833      -0.00250091      -0.00365611       0.11508618
C        0.03678459       0.06809261      18.69491090      -0.00045920       0.00065357      -0.00407494
C        1.37738486       0.84206457      18.69516107      -0.00182600      -0.00085669      -0.00362166
C       -1.30366559       2.38921603      18.69552910      -0.00158791       0.00187768       0.00147581
C        0.03648376       3.16373097      18.69199889       0.00006633       0.00072222      -0.00842782
C        2.71719448       0.06867713      18.69564140       0.00169693      -0.00024194      -0.00374224
C        4.05703511       0.84246554      18.69398301       0.00047205       0.00026354      -0.00267472
C        1.37709358       2.38888780      18.69135320       0.00128092       0.00117448      -0.00599427
C        2.71718382       3.16128975      18.68547663       0.00271097       0.00001183      -0.00833269
Si      -0.89341603       4.64232588       5.05623624       0.00021340       0.00044660      -0.05577777
Si      -1.78683208       6.18976788      12.64850174       0.00012547      -0.00009616      -0.03153612
Si      -1.78683208       6.18976788       2.52836107       0.00000360      -0.00025480       0.15877616
Si      -0.89341603       4.64232588      10.12062657      -0.00124467      -0.00306141      -0.07784863
Si      -2.68519094       4.62708111      15.18094575      -0.00145782       0.00519080      -0.00141796
Si      -2.68024811       4.64232589       7.58805938      -0.00003162      -0.00043066      -0.08970219
C       -2.68024811       4.64232589       5.68435955       0.00000643       0.00053402       0.08143069
C       -2.68024811       4.64232589      13.27662505      -0.00259527      -0.01597786       0.05412224
C       -0.89341603       4.64232588       3.15844319       0.00207797       0.00297734       0.08439852
C       -1.78683208       6.18976788      10.75070869      -0.00093562       0.00068057       0.02877553
C       -1.78683208       6.18976788       0.63055283      -0.00188770      -0.00231554      -0.23986156
C       -0.89341603       4.64232588       8.22281833      -0.00078187      -0.00067980       0.11489386
Si      -0.89341603       7.73720981       5.05623624      -0.00004397       0.00018486      -0.05606856
Si       0.89341603       4.64232591      12.64850174       0.00141771      -0.00040881      -0.03721646
Si       0.89341603       4.64232591       2.52836107      -0.00023114      -0.00026045       0.15891654
Si      -0.89341603       7.73720981      10.12062657       0.00076825       0.00290560      -0.07707499
Si      -2.67399512       7.74944305      15.18105495       0.00070937      -0.00154729      -0.00194915
Si      -2.68024811       7.73720982       7.58805938       0.00002288       0.00031445      -0.09016396
C       -2.68024811       7.73720982       5.68435955       0.00094642       0.00012367       0.08222208
C       -2.68024811       7.73720982      13.27662505       0.00580709       0.01152754       0.05773438
C       -0.89341603       7.73720981       3.15844319       0.00074048       0.00239524       0.08211975
C        0.89341603       4.64232591      10.75070869       0.00091608      -0.00067826       0.02596223
C        0.89341603       4.64232591       0.63055283      -0.00057464      -0.00383480      -0.23856701
C       -0.89341603       7.73720981       8.22281833      -0.00231348      -0.00442230       0.11516871
Si      -3.57366413       6.18976784       5.05623624       0.00011930       0.00017741      -0.05606985
Si      -4.46708018       7.73720984      12.64850174       0.00080887       0.00123002      -0.03400130
Si      -4.46708018       7.73720984       2.52836107      -0.00010824      -0.00018949       0.15855582
Si      -3.57366413       6.18976784      10.12062657       0.00035044      -0.00171235      -0.07842533
Si       0.00923278       6.20005862      15.18144432      -0.00331904      -0.00195301       0.00089320
Si       0.00000000       6.18976786       7.58805938      -0.00010156      -0.00029413      -0.09047378
C        0.00000000       6.18976786       5.68435955       0.00113026       0.00311412       0.07973377
C        0.00000000       6.18976786      13.27662505       0.00891813       0.00919889       0.06870193
C       -3.57366413       6.18976784       3.15844319       0.00137245       0.00106726       0.08259926
C       -4.46708018       7.73720984      10.75070869       0.00165296       0.00226540       0.02530428
C       -4.46708018       7.73720984       0.63055283      -0.00163111      -0.00167070      -0.23796280
C       -3.57366413       6.18976784       8.22281833      -0.00124056      -0.00280405       0.11550964
C       -2.64321118       4.71029839      18.69459998      -0.00090323       0.00137220      -0.00298351
C       -1.30253518       5.48418472      18.69575901      -0.00084178       0.00080913      -0.00097162
C       -3.98424150       7.03107897      18.69632593      -0.00220626      -0.00005374       0.00314472
C       -2.64338977       7.80522281      18.69502906       0.00115597       0.00193476      -0.00246697
C        0.03649115       4.71109497      18.69307220       0.00212605       0.00042937      -0.00639845
C        1.37542617       5.48473349      18.69095673       0.00079164       0.00189567      -0.00747445
C       -1.30271765       7.03112536      18.69655255       0.00125907       0.00049957      -0.00192036
C        0.03647454       7.80448074      18.69655951       0.00269195      -0.00094051      -0.00322879
Si       7.14732829      -0.00000002       5.05623624       0.00028256       0.00046408      -0.05569087
Si       6.25391224       1.54744198      12.64850174      -0.00085643       0.00164988      -0.03366423
Si       6.25391224       1.54744198       2.52836107      -0.00002417      -0.00039878       0.15888286
Si       7.14732829      -0.00000002      10.12062657      -0.00168202      -0.00258319      -0.07806846
Si       5.35452144      -0.01304496      15.18098056      -0.00045971       0.00401015      -0.00114645
Si       5.36049621       0.00000000       7.58805938      -0.00010104      -0.00035507      -0.08972944
C        5.36049621       0.00000000       5.68435955      -0.00028256       0.00082610       0.08119569
C        5.36049621       0.00000000      13.27662505      -0.00527668      -0.01260895       0.05567955
C        7.14732829      -0.00000002       3.15844319       0.00078933       0.00253357       0.08459829
C        6.25391224       1.54744198      10.75070869      -0.00091300       0.00040623       0.02783965
C        6.25391224       1.54744198       0.63055283      -0.00208002      -0.00199980      -0.23971192
C        7.14732829      -0.00000002       8.22281833      -0.00105775      -0.00037718       0.11557314
Si       7.14732829       3.09488391       5.05623624      -0.00010876       0.00003625      -0.05617732
Si       8.93416034       0.00000002      12.64850174       0.00042475       0.00000257      -0.03145230
Si       8.93416034       0.00000002       2.52836107      -0.00018692      -0.00012573       0.15892297
Si       7.14732829       3.09488391      10.12062657       0.00085695       0.00296731      -0.07684950
Si       5.36564479       3.10792181      15.18078899       0.00165939      -0.00386848      -0.00198206
Si       5.36049621       3.09488393       7.58805938       0.00002623       0.00013550      -0.09007526
C        5.36049621       3.09488393       5.68435955       0.00046126       0.00050085       0.08105840
C        5.36049621       3.09488393      13.27662505       0.00416596       0.01276527       0.05089936
C        7.14732829       3.09488391       3.15844319       0.00098473       0.00210728       0.08251313
C        8.93416034       0.00000002      10.75070869       0.00051319      -0.00011416       0.02858912
C        8.93416034       0.00000002       0.63055283      -0.00296911      -0.00324653      -0.23865777
C        7.14732829       3.09488391       8.22281833      -0.00270146      -0.00349182       0.11557392
Si       4.46708018       1.54744195       5.05623624       0.00020312       0.00016558      -0.05617629
Si       3.57366413       3.09488395      12.64850174       0.00082687       0.00216153      -0.03773762
Si       3.57366413       3.09488395       2.52836107      -0.00014732      -0.00026148       0.15869749
Si       4.46708018       1.54744195      10.12062657       0.00036458      -0.00099862      -0.07822196
Si       8.04725897       1.56143991      15.18153146      -0.00086106      -0.00344116       0.00038001
Si       8.04074432       1.54744196       7.58805938      -0.00003111      -0.00010053      -0.09045115
C        8.04074432       1.54744196       5.68435955       0.00156683       0.00265132       0.07979701
C        8.04074432       1.54744196      13.27662505       0.00633700       0.01326381       0.07043151
C        4.46708018       1.54744195       3.15844319       0.00123850       0.00164731       0.08221797
C        3.57366413       3.09488395      10.75070869       0.00161234       0.00168639       0.02454966
C        3.57366413       3.09488395       0.63055283      -0.00072582      -0.00271740      -0.23912596
C        4.46708018       1.54744195       8.22281833      -0.00117294      -0.00311412       0.11621438
C        5.39762513       0.06812024      18.69471828       0.00014681       0.00268115      -0.00525456
C        6.73792465       0.84203063      18.69618826      -0.00013575       0.00012856      -0.00145807
C        4.05730923       2.38808978      18.68894459      -0.00100093       0.00109503      -0.00709933
C        5.39736377       3.16244601      18.69135124       0.00183885       0.00169564      -0.00657380
C        8.07761933       0.06863961      18.69657858       0.00064406      -0.00091403      -0.00146476
C        9.41725125       0.84213450      18.69620834      -0.00031547       0.00110429       0.00040983
C        6.73788472       2.38882209      18.69535253      -0.00172804       0.00057798       0.00052502
C        8.07753656       3.16228356      18.69577792       0.00118322      -0.00067723       0.00196895
Si       4.46708018       4.64232588       5.05623624       0.00004371       0.00019669      -0.05578625
Si       3.57366413       6.18976788      12.64850174      -0.00267909      -0.00191084      -0.07258044
Si       3.57366413       6.18976788       2.52836107      -0.00004885      -0.00024220       0.15892940
Si       4.46708018       4.64232588      10.12062657       0.00027562       0.00060832      -0.07657337
Si       2.68745264       4.65365218      15.18069245      -0.00338897      -0.00059495      -0.00249500
Si       2.68024811       4.64232589       7.58805938       0.00012547      -0.00008510      -0.09000224
C        2.68024811       4.64232589       5.68435955      -0.00066283       0.00086595       0.08075629
C        2.68024811       4.64232589      13.27662505       0.00752999       0.00899655       0.04880802
C        4.46708018       4.64232588       3.15844319       0.00108243       0.00210728       0.08361973
C        3.57366413       6.18976788      10.75070869      -0.00049391       0.00227260       0.01964143
C        3.57366413       6.18976788       0.63055283      -0.00310589      -0.00389162      -0.23751542
C        4.46708018       4.64232588       8.22281833      -0.00068700      -0.00181443       0.11526410
Si       4.46708018       7.73720981       5.05623624       0.00008767       0.00022703      -0.05608373
Si       6.25391224       4.64232591      12.64850174      -0.00040649      -0.00323213      -0.07115554
Si       6.25391224       4.64232591       2.52836107      -0.00019129      -0.00013807       0.15896257
Si       4.46708018       7.73720981      10.12062657      -0.00165939      -0.00062761      -0.07846313
Si       2.67079410       7.72409024      15.18107516       0.00427986       0.00178537      -0.00292154
Si       2.68024811       7.73720982       7.58805938      -0.00033681      -0.00028925      -0.08978369
C        2.68024811       7.73720982       5.68435955      -0.00008639      -0.00000051       0.08168318
C        2.68024811       7.73720982      13.27662505      -0.01119021      -0.01274727       0.05542964
C        4.46708018       7.73720981       3.15844319       0.00081813       0.00124673       0.08245014
C        6.25391224       4.64232591      10.75070869       0.00240989       0.00120610       0.01973013
C        6.25391224       4.64232591       0.63055283      -0.00133415      -0.00362808      -0.23852124
C        4.46708018       7.73720981       8.22281833      -0.00156015      -0.00313289       0.11629460
Si       1.78683208       6.18976784       5.05623624       0.00013035      -0.00000746      -0.05614055
Si       0.89341603       7.73720984      12.64850174       0.00013190      -0.00131383      -0.07518060
Si       0.89341603       7.73720984       2.52836107      -0.00016429      -0.00042166       0.15856147
Si       1.78683208       6.18976784      10.12062657       0.00211679       0.00164345      -0.07690118
Si       5.35229774       6.17630380      15.18172147       0.00253562       0.00370393      -0.00002520
Si       5.36049621       6.18976786       7.58805938      -0.00036330      -0.00059264      -0.09012411
C        5.36049621       6.18976786       5.68435955       0.00116780       0.00193553       0.08027730
C        5.36049621       6.18976786      13.27662505      -0.00821570      -0.01392895       0.07326718
C        1.78683208       6.18976784       3.15844319       0.00064972       0.00136011       0.08230230
C        0.89341603       7.73720984      10.75070869       0.00147093       0.00348410       0.01671731
C        0.89341603       7.73720984       0.63055283      -0.00239293      -0.00205020      -0.23968338
C        1.78683208       6.18976784       8.22281833      -0.00205894      -0.00383866       0.11538597
C        2.71678872       4.71081482      18.68614963       0.00166402       0.00177098      -0.01085083
C        4.05785239       5.48423238      18.69331006      -0.00026457       0.00078727      -0.00535304
C        1.37591740       7.03067637      18.69502770      -0.00072942       0.00059007      -0.00146167
C        2.71712889       7.80532983      18.69449876       0.00002854       0.00052091      -0.00346636
C        5.39755899       4.71016266      18.69454584       0.00101276      -0.00066232      -0.00359183
C        6.73685143       5.48404738      18.69613229       0.00034324      -0.00050651       0.00017792
C        4.05780079       7.03139182      18.69589176       0.00047077      -0.00091840      -0.00264772
C        5.39742740       7.80450751      18.69651974       0.00237493      -0.00075719       0.00029182
C        2.61768426       3.78474990      21.80224491       0.00453388      -0.00442255       0.02109333
O        1.50222357       4.14716852      21.77034896       0.01509880      -0.01153294       0.02556294
O        3.73326877       3.42221919      21.82330798      -0.01799669       0.01424674       0.02196596
