179
Lattice="10.720992125991367 0.0 0.0 -5.360496062995684 9.284647205911675 0.0 0.0 0.0 34.99999747733031" Properties=species:S:1:pos:R:3:forces:R:3 energy=-72984.04728953764 free_energy=-72984.04728953764 pbc="T T T"
Si       1.78683208      -0.00000002       5.05623624       0.00007405       0.00003111      -0.04569596
Si       0.89341603       1.54744198      12.64850174      -0.00006068       0.00027948      -0.07712590
Si       0.89341603       1.54744198       2.52836107       0.00010516       0.00006453       0.22334685
Si       1.78683208      -0.00000002      10.12062657      -0.00071682      -0.00083098      -0.07421181
Si       0.00189806       0.00244126      15.17649413      -0.00116702      -0.00166273      -0.00343654
Si       0.00000000       0.00000000       7.58805938       0.00004937       0.00001671      -0.09294744
C        0.00000000       0.00000000       5.68435955      -0.00006839       0.00016686       0.08212361
C        0.00000000       0.00000000      13.27662505       0.00185377       0.00223892       0.01376671
C        1.78683208      -0.00000002       3.15844319       0.00054379       0.00003137       0.08299315
C        0.89341603       1.54744198      10.75070869      -0.00208979       0.00034093       0.03048994
C        0.89341603       1.54744198       0.63055283       0.00096159       0.00142491      -0.26629173
C        1.78683208      -0.00000002       8.22281833       0.00070525       0.00030622       0.10887285
Si       1.78683208       3.09488391       5.05623624      -0.00002931       0.00004731      -0.04574070
Si       3.57366413       0.00000002      12.64850174       0.00004705       0.00029825      -0.07392487
Si       3.57366413       0.00000002       2.52836107       0.00000437       0.00005116       0.22316533
Si       1.78683208       3.09488391      10.12062657      -0.00062375       0.00140922      -0.07406628
Si      -0.00051869       3.09480477      15.17642018       0.00153186       0.00159948      -0.00347330
Si       0.00000000       3.09488393       7.58805938       0.00001903       0.00014141      -0.09295078
C        0.00000000       3.09488393       5.68435955       0.00013575       0.00043683       0.08205007
C        0.00000000       3.09488393      13.27662505       0.00004191      -0.00024991       0.01164247
C        1.78683208       3.09488391       3.15844319       0.00025505       0.00047874       0.08283272
C        3.57366413       0.00000002      10.75070869       0.00190390      -0.00231965       0.03149370
C        3.57366413       0.00000002       0.63055283       0.00180183       0.00000334      -0.26625470
C        1.78683208       3.09488391       8.22281833       0.00050625       0.00022060       0.10871781
Si      -0.89341603       1.54744195       5.05623624      -0.00000951       0.00006222      -0.04575715
Si      -1.78683208       3.09488395      12.64850174       0.00136448       0.00101764      -0.07354512
Si      -1.78683208       3.09488395       2.52836107      -0.00012830      -0.00002031       0.22322086
Si      -0.89341603       1.54744195      10.12062657       0.00184271       0.00013241      -0.07423392
Si       2.68056716       1.54637830      15.17744273      -0.00051396       0.00306553      -0.00334192
Si       2.68024811       1.54744196       7.58805938       0.00005091       0.00005939      -0.09313744
C        2.68024811       1.54744196       5.68435955       0.00052373       0.00014424       0.08228687
C        2.68024811       1.54744196      13.27662505       0.00081915      -0.00052862       0.03717661
C       -0.89341603       1.54744195       3.15844319       0.00007893       0.00034093       0.08289802
C       -1.78683208       3.09488395      10.75070869       0.00035918       0.00174861       0.03178295
C       -1.78683208       3.09488395       0.63055283      -0.00057053       0.00151052      -0.26635960
C       -0.89341603       1.54744195       8.22281833      -0.00082532       0.00057027       0.10868002
C       -0.01624894      -0.09546256      18.61012233      -0.00027922       0.00014115       0.00422098
C        1.32486997       0.67928252      18.61114089      -0.00004679      -0.00008330       0.00301899
C       -1.35677913       2.22556435      18.61163182      -0.00003625       0.00021109       0.00419681
C       -0.01579962       2.99942902      18.60991405       0.00004602       0.00015941       0.00290098
C        2.66397790      -0.09410460      18.61130239      -0.00016224      -0.00011313       0.00350236
C        4.00291098       0.67914847      18.61108788       0.00007353      -0.00006711       0.00316451
C        1.32521165       2.22592973      18.60963426       0.00012547      -0.00000489       0.00167225
C        2.66395537       2.99929302      18.60595200      -0.00001388      -0.00025480       0.00057618
Si      -0.89341603       4.64232588       5.05623624       0.00001311       0.00005194      -0.04572038
Si      -1.78683208       6.18976788      12.64850174      -0.00044429      -0.00075025      -0.07647309
Si      -1.78683208       6.18976788       2.52836107       0.00010670      -0.00000231       0.22322343
Si      -0.89341603       4.64232588      10.12062657      -0.00035378      -0.00108861      -0.07418815
Si      -2.67828086       4.64457833      15.17646656      -0.00140048      -0.00138737      -0.00340003
Si      -2.68024811       4.64232589       7.58805938       0.00011236      -0.00000566      -0.09297135
C       -2.68024811       4.64232589       5.68435955      -0.00012830       0.00017561       0.08201022
C       -2.68024811       4.64232589      13.27662505       0.00198823       0.00175555       0.01345124
C       -0.89341603       4.64232588       3.15844319      -0.00000771       0.00028308       0.08289751
C       -1.78683208       6.18976788      10.75070869      -0.00180003       0.00023320       0.03089335
C       -1.78683208       6.18976788       0.63055283       0.00089063      -0.00062529      -0.26605570
C       -0.89341603       4.64232588       8.22281833       0.00013575       0.00069908       0.10883711
Si      -0.89341603       7.73720981       5.05623624      -0.00002263      -0.00001594      -0.04576101
Si       0.89341603       4.64232591      12.64850174       0.00149638      -0.00110840      -0.07634094
Si       0.89341603       4.64232591       2.52836107      -0.00009025       0.00007430       0.22313370
Si      -0.89341603       7.73720981      10.12062657      -0.00081555       0.00118991      -0.07441955
Si      -2.68172945       7.73668630      15.17648294       0.00068571       0.00149458      -0.00339308
Si      -2.68024811       7.73720982       7.58805938       0.00000129       0.00002674      -0.09300066
C       -2.68024811       7.73720982       5.68435955       0.00063095      -0.00046331       0.08207296
C       -2.68024811       7.73720982      13.27662505      -0.00049108      -0.00184425       0.01391301
C       -0.89341603       7.73720981       3.15844319       0.00023268      -0.00018101       0.08289211
C        0.89341603       4.64232591      10.75070869       0.00107704      -0.00173498       0.03075117
C        0.89341603       4.64232591       0.63055283       0.00008022       0.00089500      -0.26627861
C       -0.89341603       7.73720981       8.22281833       0.00054507      -0.00026200       0.10874687
Si      -3.57366413       6.18976784       5.05623624       0.00003137      -0.00003034      -0.04575869
Si      -4.46708018       7.73720984      12.64850174       0.00071528       0.00056307      -0.07327798
Si      -4.46708018       7.73720984       2.52836107      -0.00002674      -0.00016095       0.22331496
Si      -3.57366413       6.18976784      10.12062657       0.00162879      -0.00020852      -0.07423469
Si       0.00063822       6.18633279      15.17752936      -0.00000694       0.00210162      -0.00323753
Si       0.00000000       6.18976786       7.58805938       0.00001054      -0.00007842      -0.09320429
C        0.00000000       6.18976786       5.68435955      -0.00002314      -0.00006968       0.08217991
C        0.00000000       6.18976786      13.27662505       0.00055330      -0.00299816       0.03936719
C       -3.57366413       6.18976784       3.15844319       0.00066026      -0.00060061       0.08283709
C       -4.46708018       7.73720984      10.75070869       0.00070860       0.00076053       0.03184208
C       -4.46708018       7.73720984       0.63055283       0.00101481      -0.00144265      -0.26649613
C       -3.57366413       6.18976784       8.22281833      -0.00018769      -0.00027074       0.10874147
C       -2.69662627       4.54666726      18.61022794      -0.00010130       0.00028591       0.00474214
C       -1.35539930       5.32102718      18.61159523       0.00007868       0.00015735       0.00414436
C       -4.03733238       6.86770856      18.61145280      -0.00026071       0.00003934       0.00420067
C       -2.69661939       7.64162786      18.60993228      -0.00010079       0.00008510       0.00438862
C       -0.01569763       4.54783382      18.61129357      -0.00004577       0.00017278       0.00281124
C        1.32378463       5.32041267      18.60946734       0.00005554       0.00009513       0.00164371
C       -1.35585693       6.86758838      18.61141345       0.00008639       0.00010799       0.00423512
C       -0.01623365       7.64117608      18.61146041      -0.00000977      -0.00011441       0.00413382
Si       7.14732829      -0.00000002       5.05623624      -0.00006171       0.00001440      -0.04572553
Si       6.25391224       1.54744198      12.64850174      -0.00143648      -0.00008562      -0.07630597
Si       6.25391224       1.54744198       2.52836107       0.00005039       0.00003985       0.22329671
Si       7.14732829      -0.00000002      10.12062657      -0.00091788      -0.00111612      -0.07428174
Si       5.36214702       0.00232753      15.17647352      -0.00125316      -0.00152389      -0.00342394
Si       5.36049621       0.00000000       7.58805938       0.00002134       0.00006299      -0.09298137
C        5.36049621       0.00000000       5.68435955      -0.00004628       0.00021160       0.08201588
C        5.36049621       0.00000000      13.27662505       0.00127115       0.00209905       0.01348981
C        7.14732829      -0.00000002       3.15844319      -0.00047051       0.00007328       0.08282346
C        6.25391224       1.54744198      10.75070869      -0.00226591       0.00036715       0.03106741
C        6.25391224       1.54744198       0.63055283      -0.00070140       0.00046511      -0.26634495
C        7.14732829      -0.00000002       8.22281833      -0.00027665       0.00040315       0.10882811
Si       7.14732829       3.09488391       5.05623624      -0.00010182       0.00002134      -0.04575329
Si       8.93416034       0.00000002      12.64850174       0.00026225      -0.00081247      -0.07404751
Si       8.93416034       0.00000002       2.52836107      -0.00016069       0.00003420       0.22313113
Si       7.14732829       3.09488391      10.12062657      -0.00092868       0.00126807      -0.07441595
Si       5.35792332       3.09454163      15.17642677       0.00003060       0.00173807      -0.00345968
Si       5.36049621       3.09488393       7.58805938      -0.00010413       0.00007456      -0.09296132
C        5.36049621       3.09488393       5.68435955       0.00014295      -0.00013858       0.08211384
C        5.36049621       3.09488393      13.27662505      -0.00228288      -0.00129455       0.01185201
C        7.14732829       3.09488391       3.15844319      -0.00018589       0.00009693       0.08298235
C        8.93416034       0.00000002      10.75070869       0.00084975      -0.00220961       0.03147596
C        8.93416034       0.00000002       0.63055283      -0.00147916      -0.00010027      -0.26631152
C        7.14732829       3.09488391       8.22281833       0.00005142      -0.00004911       0.10881680
Si       4.46708018       1.54744195       5.05623624       0.00004474       0.00002468      -0.04576769
Si       3.57366413       3.09488395      12.64850174       0.00011493       0.00139637      -0.07695877
Si       3.57366413       3.09488395       2.52836107      -0.00002083      -0.00007353       0.22325506
Si       4.46708018       1.54744195      10.12062657       0.00136706       0.00041395      -0.07409508
Si       8.04083965       1.54478216      15.17759691      -0.00033887       0.00193193      -0.00317608
Si       8.04074432       1.54744196       7.58805938      -0.00004191      -0.00002854      -0.09322254
C        8.04074432       1.54744196       5.68435955      -0.00052810       0.00022883       0.08210972
C        8.04074432       1.54744196      13.27662505      -0.00060678      -0.00150512       0.04086794
C        4.46708018       1.54744195       3.15844319       0.00062683       0.00007276       0.08282706
C        3.57366413       3.09488395      10.75070869       0.00112769       0.00143545       0.03070900
C        3.57366413       3.09488395       0.63055283       0.00094102       0.00054559      -0.26665065
C        4.46708018       1.54744195       8.22281833      -0.00019309       0.00016352       0.10866228
C        5.34401059      -0.09541561      18.61003941       0.00011030      -0.00005296       0.00436959
C        6.68499438       0.67892475      18.61144933       0.00019618       0.00001363       0.00446832
C        4.00257666       2.22609987      18.60958065       0.00005579      -0.00027537       0.00178692
C        5.34355801       2.99946820      18.60984088       0.00016224       0.00003368       0.00301076
C        8.02447498      -0.09431247      18.61141246      -0.00008999       0.00021469       0.00426675
C        9.36379259       0.67873708      18.61149104      -0.00013755       0.00034196       0.00434491
C        6.68456014       2.22545431      18.61158304       0.00017972       0.00021597       0.00432948
C        8.02444045       2.99893625      18.61166793      -0.00006736       0.00028025       0.00470049
Si       4.46708018       4.64232588       5.05623624      -0.00000977      -0.00001517      -0.04569005
Si       3.57366413       6.18976788      12.64850174      -0.00159486      -0.00189053      -0.07636485
Si       3.57366413       6.18976788       2.52836107       0.00002545      -0.00007739       0.22324040
Si       4.46708018       4.64232588      10.12062657      -0.00107626      -0.00139585      -0.07405908
Si       2.68176507       4.64320693      15.17630979      -0.00110352      -0.00215253      -0.00363014
Si       2.68024811       4.64232589       7.58805938       0.00006736      -0.00001671      -0.09291941
C        2.68024811       4.64232589       5.68435955      -0.00009873       0.00023448       0.08191920
C        2.68024811       4.64232589      13.27662505       0.00128889       0.00087109       0.00819616
C        4.46708018       4.64232588       3.15844319       0.00004165      -0.00028231       0.08284377
C        3.57366413       6.18976788      10.75070869      -0.00225666      -0.00006273       0.03062158
C        3.57366413       6.18976788       0.63055283      -0.00072068      -0.00147299      -0.26629121
C        4.46708018       4.64232588       8.22281833       0.00030905       0.00017818       0.10884688
Si       4.46708018       7.73720981       5.05623624      -0.00009230      -0.00005116      -0.04573607
Si       6.25391224       4.64232591      12.64850174      -0.00030596      -0.00096365      -0.07445915
Si       6.25391224       4.64232591       2.52836107      -0.00009796       0.00000386       0.22312085
Si       4.46708018       7.73720981      10.12062657      -0.00102433       0.00087752      -0.07440850
Si       2.67860843       7.73665950      15.17647387       0.00084615       0.00133029      -0.00343911
Si       2.68024811       7.73720982       7.58805938      -0.00013138      -0.00001260      -0.09300040
C        2.68024811       7.73720982       5.68435955      -0.00035018      -0.00037590       0.08200662
C        2.68024811       7.73720982      13.27662505      -0.00196381      -0.00236876       0.01323990
C        4.46708018       7.73720981       3.15844319      -0.00029208      -0.00055767       0.08295407
C        6.25391224       4.64232591      10.75070869       0.00177920      -0.00255722       0.03137132
C        6.25391224       4.64232591       0.63055283      -0.00007148      -0.00102767      -0.26608269
C        4.46708018       7.73720981       8.22281833       0.00009282      -0.00056950       0.10886256
Si       1.78683208       6.18976784       5.05623624      -0.00001723      -0.00001620      -0.04573401
Si       0.89341603       7.73720984      12.64850174       0.00093640       0.00030210      -0.07377446
Si       0.89341603       7.73720984       2.52836107      -0.00009410      -0.00010156       0.22327588
Si       1.78683208       6.18976784      10.12062657       0.00162648      -0.00036561      -0.07407760
Si       5.36025482       6.18636033      15.17755260      -0.00073482       0.00216435      -0.00325939
Si       5.36049621       6.18976786       7.58805938      -0.00003934      -0.00017098      -0.09322820
C        5.36049621       6.18976786       5.68435955       0.00004217      -0.00065306       0.08217066
C        5.36049621       6.18976786      13.27662505      -0.00053890      -0.00384611       0.03980428
C        1.78683208       6.18976784       3.15844319       0.00000540      -0.00024683       0.08282629
C        0.89341603       7.73720984      10.75070869       0.00015092       0.00143802       0.03149884
C        0.89341603       7.73720984       0.63055283      -0.00063198      -0.00034170      -0.26646630
C        1.78683208       6.18976784       8.22281833      -0.00075179       0.00010053       0.10878312
C        2.66388699       4.54642097      18.60422804       0.00003497      -0.00010002       0.00057490
C        4.00401551       5.32057474      18.60948662       0.00001697      -0.00007096       0.00165271
C        1.32342792       6.86736609      18.61106603       0.00003780      -0.00010979       0.00308687
C        2.66389703       7.64145165      18.60991397       0.00004139       0.00015427       0.00359466
C        5.34365769       4.54784320      18.61126483      -0.00009590       0.00013627       0.00283233
C        6.68318937       5.32087625      18.61159430      -0.00017406       0.00030802       0.00414847
C        4.00438758       6.86721617      18.61111612      -0.00003137       0.00010773       0.00304084
C        5.34415681       7.64114841      18.61155302      -0.00032653       0.00001800       0.00402866
C        2.63813428       3.79893629      22.94123853      -0.00067800      -0.00019746       0.00004962
O        2.63106391       3.78864594      24.11186091      -0.00023448       0.00007122      -0.00114620
O        2.64522149       3.80909146      21.76398069      -0.00041909       0.00033681      -0.00603541
