179
Lattice="10.720992125991367 0.0 0.0 -5.360496062995684 9.284647205911675 0.0 0.0 0.0 34.99999747733031" Properties=species:S:1:pos:R:3:forces:R:3 energy=-74050.69978093792 free_energy=-74050.69978093792 pbc="T T T"
Si       1.78683208      -0.00000002       5.05623624      -0.00019412      -0.00029465      -0.05624005
Si       0.89341603       1.54744198      12.64850174      -0.00090709       0.00118631      -0.05722401
Si       0.89341603       1.54744198       2.52836107       0.00020106      -0.00000797       0.15819689
Si       1.78683208      -0.00000002      10.12062657      -0.00096519      -0.00089963      -0.07787949
Si       0.00064470       0.00128526      15.18059087      -0.00010850      -0.00042475      -0.00313340
Si       0.00000000       0.00000000       7.58805938      -0.00013164      -0.00002468      -0.09022669
C        0.00000000       0.00000000       5.68435955      -0.00022086       0.00030776       0.08252161
C        0.00000000       0.00000000      13.27662505       0.00053659       0.00135420       0.05292642
C        1.78683208      -0.00000002       3.15844319       0.00054816       0.00002417       0.08513334
C        0.89341603       1.54744198      10.75070869      -0.00367822       0.00017972       0.02197805
C        0.89341603       1.54744198       0.63055283       0.00187459      -0.00045714      -0.23619028
C        1.78683208      -0.00000002       8.22281833       0.00014501      -0.00050934       0.11433721
Si       1.78683208       3.09488391       5.05623624      -0.00026585       0.00033861      -0.05635807
Si       3.57366413       0.00000002      12.64850174       0.00072891      -0.00016455      -0.05149508
Si       3.57366413       0.00000002       2.52836107      -0.00016918       0.00023448       0.15832956
Si       1.78683208       3.09488391      10.12062657      -0.00035970       0.00141951      -0.07742440
Si       0.00126774       3.09506009      15.18028149       0.00119608      -0.00028385      -0.00232993
Si       0.00000000       3.09488393       7.58805938      -0.00001466      -0.00003034      -0.09001689
C        0.00000000       3.09488393       5.68435955       0.00004422       0.00053762       0.08052824
C        0.00000000       3.09488393      13.27662505       0.00143905       0.00109812       0.04761117
C        1.78683208       3.09488391       3.15844319      -0.00057953       0.00079010       0.08345132
C        3.57366413       0.00000002      10.75070869       0.00231914      -0.00369108       0.02305534
C        3.57366413       0.00000002       0.63055283      -0.00084126       0.00129172      -0.23640445
C        1.78683208       3.09488391       8.22281833      -0.00048697      -0.00009487       0.11415467
Si      -0.89341603       1.54744195       5.05623624       0.00044557      -0.00006325      -0.05611047
Si      -1.78683208       3.09488395      12.64850174       0.00021932       0.00131306      -0.05467091
Si      -1.78683208       3.09488395       2.52836107      -0.00009513      -0.00026791       0.15821772
Si      -0.89341603       1.54744195      10.12062657       0.00155038       0.00030905      -0.07782266
Si       2.67984107       1.55035438      15.18104908       0.00019566       0.00039158      -0.00144907
Si       2.68024811       1.54744196       7.58805938      -0.00009179       0.00009282      -0.09028172
C        2.68024811       1.54744196       5.68435955       0.00011801       0.00002880       0.07970188
C        2.68024811       1.54744196      13.27662505       0.00076233       0.00431585       0.06338026
C       -0.89341603       1.54744195       3.15844319       0.00056796       0.00022806       0.08392286
C       -1.78683208       3.09488395      10.75070869       0.00253099       0.00387311       0.02316564
C       -1.78683208       3.09488395       0.63055283      -0.00107344      -0.00076953      -0.23531070
C       -0.89341603       1.54744195       8.22281833      -0.00075616       0.00031213       0.11423180
C       -0.00015724       0.00015875      18.67571697       0.00045251       0.00018692      -0.01529086
C        1.34054520       0.77423080      18.67358955       0.00034941       0.00063275      -0.00329924
C       -1.34098596       2.32102700      18.67634374       0.00082327       0.00004268      -0.00647301
C       -0.00004530       3.09482201      18.67077998       0.00027871       0.00113643       0.00525148
C        2.68027377       0.00046285      18.67322272      -0.00119402       0.00023191       0.00439042
C        4.01966193       0.77361133      18.66780740       0.00029465       0.00008845       0.01981215
C        1.34048309       2.32070854      18.66795293       0.00089192       0.00219984       0.00357743
C        2.67948175       3.09407155      18.65653615       0.00029593       0.00065152       0.01051453
Si      -0.89341603       4.64232588       5.05623624      -0.00014527      -0.00028796      -0.05620740
Si      -1.78683208       6.18976788      12.64850174      -0.00111226      -0.00071605      -0.05440737
Si      -1.78683208       6.18976788       2.52836107       0.00026585       0.00000231       0.15840515
Si      -0.89341603       4.64232588      10.12062657      -0.00037358      -0.00137374      -0.07788489
Si      -2.68190429       4.64218444      15.18026681      -0.00063815       0.00015349      -0.00223095
Si      -2.68024811       4.64232589       7.58805938       0.00011647       0.00000283      -0.08998527
C       -2.68024811       4.64232589       5.68435955      -0.00004525      -0.00022909       0.08062491
C       -2.68024811       4.64232589      13.27662505      -0.00194170      -0.00065023       0.04718977
C       -0.89341603       4.64232588       3.15844319       0.00004037      -0.00068031       0.08310602
C       -1.78683208       6.18976788      10.75070869      -0.00383634      -0.00041035       0.02259511
C       -1.78683208       6.18976788       0.63055283       0.00145936      -0.00017201      -0.23751825
C       -0.89341603       4.64232588       8.22281833      -0.00021649       0.00069677       0.11353683
Si      -0.89341603       7.73720981       5.05623624      -0.00032653       0.00043220      -0.05614029
Si       0.89341603       4.64232591      12.64850174       0.00122539      -0.00152261      -0.05779917
Si       0.89341603       4.64232591       2.52836107      -0.00015067       0.00023783       0.15839332
Si      -0.89341603       7.73720981      10.12062657      -0.00052502       0.00106032      -0.07796742
Si      -2.68106533       7.73598597      15.18057467       0.00039801       0.00041112      -0.00304779
Si      -2.68024811       7.73720982       7.58805938       0.00001363      -0.00004397      -0.09027015
C       -2.68024811       7.73720982       5.68435955       0.00050522      -0.00053659       0.08258692
C       -2.68024811       7.73720982      13.27662505      -0.00061964      -0.00149330       0.05282434
C       -0.89341603       7.73720981       3.15844319      -0.00026739       0.00053787       0.08408536
C        0.89341603       4.64232591      10.75070869       0.00210753      -0.00305473       0.02144171
C        0.89341603       4.64232591       0.63055283      -0.00073559       0.00075410      -0.23669884
C       -0.89341603       7.73720981       8.22281833       0.00053813      -0.00061886       0.11413693
Si      -3.57366413       6.18976784       5.05623624       0.00033964       0.00003162      -0.05626371
Si      -4.46708018       7.73720984      12.64850174       0.00036253       0.00022034      -0.05343755
Si      -4.46708018       7.73720984       2.52836107      -0.00024914      -0.00028694       0.15826863
Si      -3.57366413       6.18976784      10.12062657       0.00117551      -0.00068828      -0.07780775
Si       0.00122838       6.18904325      15.18139406       0.00049931       0.00008176      -0.00231888
Si       0.00000000       6.18976786       7.58805938       0.00002288      -0.00003111      -0.09045707
C        0.00000000       6.18976786       5.68435955       0.00000411       0.00009899       0.08078200
C        0.00000000       6.18976786      13.27662505       0.00104027      -0.00104207       0.06808873
C       -3.57366413       6.18976784       3.15844319       0.00087520      -0.00013370       0.08349606
C       -4.46708018       7.73720984      10.75070869       0.00162854       0.00287552       0.02289516
C       -4.46708018       7.73720984       0.63055283      -0.00089577      -0.00150487      -0.23715238
C       -3.57366413       6.18976784       8.22281833       0.00071631       0.00072197       0.11350109
C       -2.68038606       4.64214812      18.67097977      -0.00045380      -0.00066926       0.00406594
C       -1.33944689       5.41606756      18.67639729      -0.00075539      -0.00001414      -0.00628969
C       -4.02096250       6.96292985      18.67374407      -0.00061784      -0.00072685      -0.00392093
C       -2.68008830       7.73686037      18.67580709      -0.00146424       0.00001851      -0.01574929
C        0.00022066       4.64265674      18.67233335      -0.00082224       0.00088883       0.00750248
C        1.33947274       5.41580938      18.66744903      -0.00012393       0.00157069       0.00809178
C       -1.33942034       6.96273199      18.67929847      -0.00133286       0.00044814      -0.02382950
C        0.00017049       7.73616627      18.67803810      -0.00145936      -0.00020235      -0.01761566
Si       7.14732829      -0.00000002       5.05623624      -0.00016815      -0.00022780      -0.05620432
Si       6.25391224       1.54744198      12.64850174      -0.00145524       0.00117422      -0.05708338
Si       6.25391224       1.54744198       2.52836107       0.00032730      -0.00004911       0.15836736
Si       7.14732829      -0.00000002      10.12062657      -0.00100890      -0.00106572      -0.07790211
Si       5.36209822       0.00032078      15.18038404      -0.00065820       0.00029902      -0.00217438
Si       5.36049621       0.00000000       7.58805938       0.00002700      -0.00006736      -0.09006626
C        5.36049621       0.00000000       5.68435955       0.00021932      -0.00004937       0.08133093
C        5.36049621       0.00000000      13.27662505       0.00120096       0.00085618       0.05020105
C        7.14732829      -0.00000002       3.15844319      -0.00115391      -0.00042038       0.08333897
C        6.25391224       1.54744198      10.75070869      -0.00409500       0.00030802       0.02176722
C        6.25391224       1.54744198       0.63055283       0.00050908      -0.00086903      -0.23683717
C        7.14732829      -0.00000002       8.22281833       0.00000900      -0.00010542       0.11342344
Si       7.14732829       3.09488391       5.05623624      -0.00021186       0.00041575      -0.05611587
Si       8.93416034       0.00000002      12.64850174       0.00031316      -0.00038489      -0.05308171
Si       8.93416034       0.00000002       2.52836107      -0.00012084       0.00028539       0.15814136
Si       7.14732829       3.09488391      10.12062657      -0.00103770       0.00161260      -0.07759255
Si       5.36039555       3.09637105      15.17980157       0.00016147       0.00003728      -0.00206460
Si       5.36049621       3.09488393       7.58805938       0.00004628       0.00000360      -0.08987034
C        5.36049621       3.09488393       5.68435955      -0.00029542       0.00007688       0.07892155
C        5.36049621       3.09488393      13.27662505      -0.00043657       0.00184425       0.03870462
C        7.14732829       3.09488391       3.15844319       0.00020826       0.00038078       0.08398766
C        8.93416034       0.00000002      10.75070869       0.00117885      -0.00357255       0.02297538
C        8.93416034       0.00000002       0.63055283      -0.00062889       0.00035713      -0.23657209
C        7.14732829       3.09488391       8.22281833       0.00058981      -0.00034273       0.11414001
Si       4.46708018       1.54744195       5.05623624       0.00041832      -0.00000823      -0.05640152
Si       3.57366413       3.09488395      12.64850174       0.00089732       0.00198155      -0.06006791
Si       3.57366413       3.09488395       2.52836107      -0.00013550      -0.00019772       0.15837353
Si       4.46708018       1.54744195      10.12062657       0.00150898       0.00076028      -0.07766891
Si       8.03933107       1.54821371      15.18135847      -0.00022651      -0.00013395      -0.00219341
Si       8.04074432       1.54744196       7.58805938       0.00000514       0.00000720      -0.09046452
C        8.04074432       1.54744196       5.68435955      -0.00029259       0.00023551       0.08063802
C        8.04074432       1.54744196      13.27662505      -0.00162288       0.00161645       0.06741150
C        4.46708018       1.54744195       3.15844319       0.00076490      -0.00053479       0.08375626
C        3.57366413       3.09488395      10.75070869       0.00229831       0.00304624       0.02132062
C        3.57366413       3.09488395       0.63055283      -0.00095928      -0.00090709      -0.23517906
C        4.46708018       1.54744195       8.22281833      -0.00006428      -0.00075925       0.11434184
C        5.36056610      -0.00009493      18.67191315      -0.00024657      -0.00085155       0.00160051
C        6.70099885       0.77450017      18.67380473       0.00089757      -0.00144753      -0.00372501
C        4.01956024       2.32111771      18.65762934       0.00092997      -0.00097419       0.02013482
C        5.36110053       3.09497284      18.65406147       0.00084898      -0.00134957       0.01308306
C        8.04061302       0.00094456      18.67805575      -0.00007996      -0.00043040      -0.01808128
C        9.38001145       0.77417023      18.67931047       0.00123002       0.00067543      -0.02459312
C        6.70090324       2.32113479      18.66732206       0.00124519      -0.00097445       0.00856666
C        8.04047391       3.09435321      18.67239069       0.00019335      -0.00075256       0.00671392
Si       4.46708018       4.64232588       5.05623624      -0.00024168      -0.00036561      -0.05616986
Si       3.57366413       6.18976788      12.64850174      -0.00128761      -0.00143339      -0.05479895
Si       3.57366413       6.18976788       2.52836107       0.00030416       0.00002494       0.15835656
Si       4.46708018       4.64232588      10.12062657      -0.00058184      -0.00164036      -0.07739663
Si       2.68027411       4.64074670      15.17981465       0.00001080       0.00005374      -0.00215716
Si       2.68024811       4.64232589       7.58805938      -0.00001594       0.00000617      -0.08991842
C        2.68024811       4.64232589       5.68435955       0.00013395      -0.00020132       0.07856057
C        2.68024811       4.64232589      13.27662505       0.00048337      -0.00204146       0.03907897
C        4.46708018       4.64232588       3.15844319      -0.00012676      -0.00082584       0.08305589
C        3.57366413       6.18976788      10.75070869      -0.00457785       0.00028411       0.02175462
C        3.57366413       6.18976788       0.63055283       0.00118194       0.00057207      -0.23653403
C        4.46708018       4.64232588       8.22281833       0.00004859       0.00014192       0.11402560
Si       4.46708018       7.73720981       5.05623624      -0.00016198       0.00035430      -0.05627399
Si       6.25391224       4.64232591      12.64850174       0.00019155      -0.00173344      -0.06082047
Si       6.25391224       4.64232591       2.52836107      -0.00012110       0.00024605       0.15847071
Si       4.46708018       7.73720981      10.12062657      -0.00087880       0.00092843      -0.07797127
Si       2.67871015       7.73710006      15.18039271       0.00066206      -0.00040932      -0.00223969
Si       2.68024811       7.73720982       7.58805938      -0.00010773       0.00014681      -0.09008374
C        2.68024811       7.73720982       5.68435955      -0.00051602      -0.00013164       0.08111419
C        2.68024811       7.73720982      13.27662505      -0.00154600      -0.00097805       0.05038591
C        4.46708018       7.73720981       3.15844319      -0.00049057       0.00041806       0.08423140
C        6.25391224       4.64232591      10.75070869       0.00254205      -0.00341982       0.02082954
C        6.25391224       4.64232591       0.63055283      -0.00001671       0.00128247      -0.23637617
C        4.46708018       7.73720981       8.22281833       0.00014192       0.00037024       0.11379780
Si       1.78683208       6.18976784       5.05623624       0.00049211       0.00002751      -0.05604696
Si       0.89341603       7.73720984      12.64850174       0.00081401       0.00042140      -0.05671699
Si       0.89341603       7.73720984       2.52836107      -0.00008228      -0.00016378       0.15824343
Si       1.78683208       6.18976784      10.12062657       0.00152389      -0.00035276      -0.07773345
Si       5.36107874       6.18672157      15.18104857      -0.00028231      -0.00028796      -0.00139148
Si       5.36049621       6.18976786       7.58805938       0.00007610      -0.00004422      -0.09030486
C        5.36049621       6.18976786       5.68435955       0.00009539      -0.00029979       0.07969983
C        5.36049621       6.18976786      13.27662505      -0.00010927      -0.00454108       0.06350059
C        1.78683208       6.18976784       3.15844319      -0.00035044       0.00076002       0.08367244
C        0.89341603       7.73720984      10.75070869       0.00157891       0.00359620       0.02282265
C        0.89341603       7.73720984       0.63055283      -0.00050394      -0.00085052      -0.23586041
C        1.78683208       6.18976784       8.22281833      -0.00084924       0.00070165       0.11422434
C        2.67930165       4.64221330      18.65425830       0.00040263       0.00081761       0.01234335
C        4.02075073       5.41625369      18.65781833       0.00061655      -0.00067543       0.02003044
C        1.33947252       6.96276183      18.67387137      -0.00008742       0.00000026      -0.00390576
C        2.68001092       7.73722345      18.67195075       0.00014167       0.00013833       0.00172598
C        5.36115366       4.64306827      18.65661627      -0.00002545      -0.00101584       0.01097553
C        6.69995565       5.41613373      18.66819089      -0.00035610      -0.00076670       0.00293260
C        4.02080463       6.96334461      18.66790291       0.00053813       0.00058621       0.02026852
C        5.36058723       7.73656060      18.67325140      -0.00096314       0.00010901       0.00464804
C        4.01575084       3.86260332      21.86545685       0.00734384      -0.00024580       0.00653600
O        5.18492395       3.76639463      21.85685574      -0.01920203       0.00261815       0.01460284
O        2.84664321       3.95878577      21.86096384       0.01212661      -0.00265029       0.01213381
