48
Lattice="8.315575849598094 0.0 0.0 4.157787924799047 7.20149657514819 0.0 0.0 0.0 19.999999365264614" Properties=species:S:1:pos:R:3:forces:R:3 energy=-278732.7402534496 free_energy=-278732.7402534496 pbc="T T T"
Pt       3.00284680       1.20024997       7.73678695      -0.00859417      -0.08223288      -0.42141795
Pt       5.77470538       1.20024997       7.73678695      -0.00829078      -0.08099386      -0.42337456
Pt       8.54656396       1.20024997       7.73678695      -0.00889910      -0.08105120      -0.42333753
Pt       4.38877609       3.60074992       7.73678695      -0.00837074      -0.07988572      -0.42247056
Pt       7.16063467       3.60074992       7.73678695      -0.00858337      -0.08063699      -0.41967166
Pt       9.93249325       3.60074992       7.73678695      -0.00883740      -0.07974019      -0.42222913
Pt       5.77470538       6.00124987       7.73678695      -0.00967249      -0.07956587      -0.42614492
Pt       8.54656396       6.00124987       7.73678695      -0.00751045      -0.07958233      -0.42658407
Pt      11.31842254       6.00124987       7.73678695      -0.00861397      -0.08107100      -0.42445494
Pt       1.61691751       2.00041662      10.00000000       0.01290771       0.07636871       0.43101151
Pt       4.38877609       2.00041662      10.00000000       0.01131054       0.07663456       0.43119328
Pt       7.16063467       2.00041662      10.00000000       0.01231713       0.07796485       0.42830156
Pt       3.00284680       4.40091657      10.00000000       0.01204588       0.07544877       0.43244387
Pt       5.77470538       4.40091657      10.00000000       0.01194072       0.07773705       0.42948761
Pt       8.54656396       4.40091657      10.00000000       0.01217649       0.07792731       0.42908189
Pt       4.38877609       6.80141652      10.00000000       0.01287711       0.07575987       0.43208211
Pt       7.16063467       6.80141652      10.00000000       0.01210553       0.07624272       0.43141234
Pt       9.93249325       6.80141652      10.00000000       0.01138073       0.07592750       0.43188003
Pt       1.64810362       0.69069206      12.35897654      -0.00046100       0.00367488      -0.00402635
Pt       4.41943187       0.69078806      12.35900548      -0.00125804       0.00391348      -0.00402789
Pt       7.19152510       0.69014775      12.35838605       0.00042295       0.00363091      -0.00494552
Pt       3.03374681       3.09118749      12.35900944      -0.00026225       0.00571351      -0.00321645
Pt       5.80559223       3.09059658      12.35798818      -0.00057541       0.00590171      -0.00545665
Pt       8.57763110       3.09062062      12.35788591      -0.00071759       0.00477685      -0.00504836
Pt       4.41960780       5.49150543      12.35889074       0.00069008       0.00269323      -0.00288272
Pt       7.19154067       5.49225506      12.35850962      -0.00122693       0.00212450      -0.00264901
Pt       9.96325890       5.49164792      12.35887067       0.00020517       0.00171081      -0.00268166
C        1.64919475       1.42342109      14.41737717      -0.00122153      -0.00661725      -0.00277653
C        3.03495627       2.24986794      14.43287148      -0.00122950       0.00734384       0.00053582
C        3.03466304       3.82306732      14.41837957      -0.00123876      -0.00689441       0.00074279
C        4.42072159       4.64972232      14.43202522      -0.00147144       0.00622670       0.00184605
C        4.42064641       6.22365608      14.41787091      -0.00165939      -0.00651826       0.00053736
C        5.80676601       7.05110814      14.43211524      -0.00117139       0.00656917       0.00393533
C        4.42014832       1.42337689      14.41738303      -0.00173961      -0.00667741      -0.00280456
C        5.80595202       2.25012418      14.42674604      -0.00150487       0.00525431      -0.00543891
C        5.80592299       3.82357331      14.41495589      -0.00175221      -0.00516355      -0.00484293
C        7.19279104       4.65002722      14.43257161      -0.00144933       0.00687590      -0.00205328
C        7.19245575       6.22467374      14.41761000      -0.00116548      -0.00678668       0.00080013
C        8.57869954       7.05109717      14.43215936      -0.00181726       0.00667921       0.00400244
C        7.19254086       1.42293975      14.41552054      -0.00175246      -0.00695329      -0.00732687
C        8.57965503       2.25021868      14.42659681      -0.00143133       0.00513552      -0.00537566
C        8.57907922       3.82349073      14.41483361      -0.00145344      -0.00530341      -0.00475860
C        9.96475115       4.64970659      14.43196670      -0.00144702       0.00611948       0.00214533
C        9.96423446       6.22364982      14.41784908      -0.00103384      -0.00667510       0.00081555
C       11.35055560       7.04967655      14.43257223      -0.00152852       0.00789689       0.00269323
C        7.15769599       2.80113656      17.68859161      -0.00020697       0.00013858      -0.00835917
O        8.33193436       2.80778220      17.67709265       0.00265029       0.00006608      -0.00354041
O        5.98344733       2.79454110      17.68742576      -0.00488201      -0.00010799      -0.00305139
