179
Lattice="10.720992125991367 0.0 0.0 -5.360496062995684 9.284647205911675 0.0 0.0 0.0 34.99999747733031" Properties=species:S:1:pos:R:3:forces:R:3 energy=-72984.05314433899 free_energy=-72984.05314433899 pbc="T T T"
Si       1.78683208      -0.00000002       5.05623624       0.00004371      -0.00002520      -0.04641895
Si       0.89341603       1.54744198      12.64850174       0.00007996       0.00095131      -0.07595990
Si       0.89341603       1.54744198       2.52836107       0.00016352       0.00006788       0.22305168
Si       1.78683208      -0.00000002      10.12062657      -0.00048208      -0.00092405      -0.07527316
Si      -0.00288462       0.00158007      15.17622317       0.00016738      -0.00001928       0.00560243
Si       0.00000000       0.00000000       7.58805938      -0.00007405       0.00000129      -0.09363778
C        0.00000000       0.00000000       5.68435955      -0.00002108       0.00004628       0.08235192
C        0.00000000       0.00000000      13.27662505      -0.00238624       0.00121870       0.01230813
C        1.78683208      -0.00000002       3.15844319       0.00043580      -0.00028925       0.08354234
C        0.89341603       1.54744198      10.75070869      -0.00225871      -0.00001003       0.03188734
C        0.89341603       1.54744198       0.63055283       0.00106367       0.00147736      -0.26629892
C        1.78683208      -0.00000002       8.22281833       0.00066797       0.00023268       0.11022859
Si       1.78683208       3.09488391       5.05623624      -0.00000900       0.00011441      -0.04642512
Si       3.57366413       0.00000002      12.64850174       0.00081195       0.00049828      -0.07602058
Si       3.57366413       0.00000002       2.52836107       0.00002623       0.00011904       0.22307457
Si       1.78683208       3.09488391      10.12062657       0.00037641       0.00131306      -0.07480290
Si      -0.00018919       3.09353521      15.17615313       0.00030956      -0.00001414       0.00542169
Si       0.00000000       3.09488393       7.58805938       0.00009590       0.00005194      -0.09367197
C        0.00000000       3.09488393       5.68435955      -0.00001003       0.00057773       0.08244474
C        0.00000000       3.09488393      13.27662505       0.00037487      -0.00029362       0.01059397
C        1.78683208       3.09488391       3.15844319       0.00017818       0.00074459       0.08352306
C        3.57366413       0.00000002      10.75070869       0.00139045      -0.00244075       0.03188142
C        3.57366413       0.00000002       0.63055283       0.00153546       0.00024220      -0.26629173
C        1.78683208       3.09488391       8.22281833       0.00019875       0.00013627       0.10983213
Si      -0.89341603       1.54744195       5.05623624       0.00002468       0.00006839      -0.04641947
Si      -1.78683208       3.09488395      12.64850174       0.00047411       0.00087932      -0.07590256
Si      -1.78683208       3.09488395       2.52836107      -0.00009847      -0.00003368       0.22301337
Si      -0.89341603       1.54744195      10.12062657       0.00149921      -0.00007225      -0.07500396
Si       2.68245501       1.55120980      15.17715622       0.00007636       0.00015349       0.00493883
Si       2.68024811       1.54744196       7.58805938       0.00011621       0.00014758      -0.09369151
C        2.68024811       1.54744196       5.68435955       0.00052836       0.00030519       0.08228764
C        2.68024811       1.54744196      13.27662505       0.00266186       0.00383763       0.03431009
C       -0.89341603       1.54744195       3.15844319       0.00002185       0.00044223       0.08363182
C       -1.78683208       3.09488395      10.75070869       0.00124956       0.00263564       0.03203492
C       -1.78683208       3.09488395       0.63055283      -0.00092663       0.00118554      -0.26629944
C       -0.89341603       1.54744195       8.22281833      -0.00069420       0.00047514       0.10990386
C       -0.00014632      -0.00031137      18.62022175       0.00015170       0.00014552       0.00387054
C        1.34081852       0.77397180      18.62140198      -0.00094437      -0.00026200      -0.00115648
C       -1.34106721       2.32062329      18.62179255       0.00076747       0.00066772       0.00100556
C       -0.00004090       3.09479981      18.61986420      -0.00016224      -0.00014758       0.00175298
C        2.68000279       0.00078179      18.62139681       0.00035096      -0.00079781      -0.00096622
C        4.01936123       0.77475746      18.61993590       0.00028771      -0.00061861      -0.00280070
C        1.34142660       2.32085898      18.61991628      -0.00077210       0.00046768      -0.00268166
C        2.68035779       3.09388404      18.61572607       0.00015555       0.00054867      -0.00360649
Si      -0.89341603       4.64232588       5.05623624       0.00000797      -0.00001157      -0.04644389
Si      -1.78683208       6.18976788      12.64850174      -0.00080604      -0.00017149      -0.08051795
Si      -1.78683208       6.18976788       2.52836107       0.00017458       0.00001003       0.22298869
Si      -0.89341603       4.64232588      10.12062657      -0.00081350      -0.00114183      -0.07513355
Si      -2.67987451       4.64388096      15.17618459      -0.00036535       0.00001080       0.00541834
Si      -2.68024811       4.64232589       7.58805938       0.00000874      -0.00000951      -0.09356090
C       -2.68024811       4.64232589       5.68435955      -0.00007996       0.00009924       0.08251236
C       -2.68024811       4.64232589      13.27662505       0.00011570       0.00103256       0.01092153
C       -0.89341603       4.64232588       3.15844319      -0.00011133      -0.00001208       0.08343924
C       -1.78683208       6.18976788      10.75070869      -0.00211679      -0.00025608       0.03111575
C       -1.78683208       6.18976788       0.63055283       0.00113437      -0.00058081      -0.26623285
C       -0.89341603       4.64232588       8.22281833       0.00023346       0.00066900       0.10998665
Si      -0.89341603       7.73720981       5.05623624       0.00003008       0.00004499      -0.04643438
Si       0.89341603       4.64232591      12.64850174       0.00220755      -0.00134314      -0.07206365
Si       0.89341603       4.64232591       2.52836107      -0.00007045       0.00014578       0.22309436
Si      -0.89341603       7.73720981      10.12062657      -0.00084332       0.00124107      -0.07502119
Si      -2.67742682       7.73550937      15.17622333      -0.00010130       0.00013575       0.00558161
Si      -2.68024811       7.73720982       7.58805938       0.00008896      -0.00010387      -0.09365449
C       -2.68024811       7.73720982       5.68435955       0.00051422      -0.00025325       0.08235089
C       -2.68024811       7.73720982      13.27662505       0.00287269      -0.00180466       0.01237369
C       -0.89341603       7.73720981       3.15844319       0.00005168       0.00005734       0.08347164
C        0.89341603       4.64232591      10.75070869       0.00121022      -0.00161542       0.03291321
C        0.89341603       4.64232591       0.63055283       0.00000540       0.00121973      -0.26621279
C       -0.89341603       7.73720981       8.22281833       0.00051628      -0.00053273       0.10988432
Si      -3.57366413       6.18976784       5.05623624       0.00003471      -0.00003908      -0.04643798
Si      -4.46708018       7.73720984      12.64850174      -0.00019875      -0.00044891      -0.07033073
Si      -4.46708018       7.73720984       2.52836107      -0.00002134      -0.00016712       0.22304680
Si      -3.57366413       6.18976784      10.12062657       0.00160463      -0.00072428      -0.07506901
Si      -0.00210360       6.19085709      15.17726864       0.00008150      -0.00010722       0.00571196
Si       0.00000000       6.18976786       7.58805938       0.00000154       0.00002005      -0.09384167
C        0.00000000       6.18976786       5.68435955       0.00001774      -0.00000077       0.08210818
C        0.00000000       6.18976786      13.27662505      -0.00128941       0.00085026       0.03757822
C       -3.57366413       6.18976784       3.15844319       0.00049571      -0.00048362       0.08350994
C       -4.46708018       7.73720984      10.75070869       0.00145499       0.00161542       0.03318523
C       -4.46708018       7.73720984       0.63055283       0.00067646      -0.00168073      -0.26645730
C       -3.57366413       6.18976784       8.22281833      -0.00021212      -0.00019000       0.11006198
C       -2.68060166       4.64188521      18.61995736      -0.00016481      -0.00006402       0.00182086
C       -1.33963535       5.41617285      18.62178444      -0.00091197      -0.00048902       0.00088754
C       -4.02157867       6.96283918      18.62153376       0.00060652       0.00044506      -0.00121228
C       -2.68053396       7.73698288      18.62022559       0.00013910       0.00016686       0.00385897
C        0.00003431       4.64268360      18.62141401       0.00020312      -0.00084666      -0.00071991
C        1.33995855       5.41560748      18.61999463       0.00066360      -0.00028282      -0.00144007
C       -1.33965817       6.96275185      18.62165542      -0.00103153       0.00007405       0.00191110
C       -0.00006284       7.73613448      18.62176703       0.00007302       0.00103538       0.00119042
Si       7.14732829      -0.00000002       5.05623624      -0.00009719      -0.00001825      -0.04643747
Si       6.25391224       1.54744198      12.64850174      -0.00232582       0.00124596      -0.07210247
Si       6.25391224       1.54744198       2.52836107       0.00010053       0.00002931       0.22305888
Si       7.14732829      -0.00000002      10.12062657      -0.00066463      -0.00128452      -0.07512224
Si       5.35940154      -0.00081885      15.17615158      -0.00016224       0.00023860       0.00542940
Si       5.36049621       0.00000000       7.58805938      -0.00006762       0.00007276      -0.09367892
C        5.36049621       0.00000000       5.68435955       0.00004217       0.00000386       0.08238123
C        5.36049621       0.00000000      13.27662505      -0.00110043      -0.00014501       0.01056543
C        7.14732829      -0.00000002       3.15844319      -0.00070602      -0.00029413       0.08340993
C        6.25391224       1.54744198      10.75070869      -0.00248806       0.00024631       0.03293583
C        6.25391224       1.54744198       0.63055283      -0.00052219       0.00056281      -0.26628555
C        7.14732829      -0.00000002       8.22281833      -0.00034916       0.00038541       0.10998048
Si       7.14732829       3.09488391       5.05623624      -0.00006325       0.00004345      -0.04641793
Si       8.93416034       0.00000002      12.64850174       0.00022806      -0.00079421      -0.08049635
Si       8.93416034       0.00000002       2.52836107      -0.00012316       0.00012367       0.22308202
Si       7.14732829       3.09488391      10.12062657      -0.00106855       0.00172881      -0.07515257
Si       5.35570443       3.09739929      15.17600881      -0.00015427       0.00007919       0.00446112
Si       5.36049621       3.09488393       7.58805938      -0.00010567       0.00008150      -0.09351308
C        5.36049621       3.09488393       5.68435955      -0.00001748      -0.00001003       0.08228584
C        5.36049621       3.09488393      13.27662505      -0.00433051       0.00224766       0.00542683
C        7.14732829       3.09488391       3.15844319      -0.00042166       0.00044197       0.08355134
C        8.93416034       0.00000002      10.75070869       0.00055562      -0.00208439       0.03105250
C        8.93416034       0.00000002       0.63055283      -0.00183371       0.00024400      -0.26628324
C        7.14732829       3.09488391       8.22281833       0.00011441      -0.00033424       0.10997868
Si       4.46708018       1.54744195       5.05623624       0.00010773       0.00001748      -0.04642255
Si       3.57366413       3.09488395      12.64850174       0.00107549       0.00180363      -0.08662021
Si       3.57366413       3.09488395       2.52836107      -0.00002314      -0.00007636       0.22303112
Si       4.46708018       1.54744195      10.12062657       0.00094462       0.00094051      -0.07481987
Si       8.04271133       1.54619438      15.17726922      -0.00012367       0.00001414       0.00570425
Si       8.04074432       1.54744196       7.58805938      -0.00004628       0.00003625      -0.09382830
C        8.04074432       1.54744196       5.68435955      -0.00051962       0.00034941       0.08213775
C        8.04074432       1.54744196      13.27662505       0.00076722      -0.00032936       0.03753296
C        4.46708018       1.54744195       3.15844319       0.00057876       0.00018949       0.08348578
C        3.57366413       3.09488395      10.75070869       0.00136243       0.00201035       0.02911157
C        3.57366413       3.09488395       0.63055283       0.00058338       0.00011364      -0.26642028
C        4.46708018       1.54744195       8.22281833       0.00002597      -0.00007533       0.10983136
C        5.36034251      -0.00005591      18.61986809       0.00019695      -0.00007688       0.00177175
C        6.70083579       0.77396435      18.62144757      -0.00084821      -0.00038181      -0.00078496
C        4.01930607       2.32083087      18.61573677       0.00054379       0.00050548      -0.00371524
C        5.35992488       3.09471388      18.61445181      -0.00018846       0.00037718      -0.00314086
C        8.04054199       0.00050064      18.62178784      -0.00014835      -0.00124493       0.00113694
C        9.37991339       0.77379472      18.62165805       0.00071939      -0.00068057       0.00191881
C        6.70023495       2.32086741      18.62003713      -0.00066000       0.00042397      -0.00157069
C        8.04042719       3.09396970      18.62149891       0.00031573       0.00066900      -0.00087777
Si       4.46708018       4.64232588       5.05623624      -0.00001311      -0.00005168      -0.04640430
Si       3.57366413       6.18976788      12.64850174      -0.00043709      -0.00201832      -0.07819805
Si       3.57366413       6.18976788       2.52836107       0.00009744      -0.00006942       0.22305965
Si       4.46708018       4.64232588      10.12062657      -0.00110943      -0.00195687      -0.07447380
Si       2.68483324       4.63943513      15.17600885       0.00013164      -0.00008639       0.00446832
Si       2.68024811       4.64232589       7.58805938       0.00013627      -0.00004911      -0.09351462
C        2.68024811       4.64232589       5.68435955      -0.00001646      -0.00004294       0.08236246
C        2.68024811       4.64232589      13.27662505       0.00415207      -0.00262021       0.00542811
C        4.46708018       4.64232588       3.15844319      -0.00014450      -0.00054379       0.08351946
C        3.57366413       6.18976788      10.75070869      -0.00316863       0.00022806       0.03122348
C        3.57366413       6.18976788       0.63055283      -0.00046871      -0.00151849      -0.26629764
C        4.46708018       4.64232588       8.22281833       0.00036510       0.00031008       0.10975808
Si       4.46708018       7.73720981       5.05623624      -0.00002520      -0.00004782      -0.04642641
Si       6.25391224       4.64232591      12.64850174      -0.00149947      -0.00138891      -0.07821116
Si       6.25391224       4.64232591       2.52836107      -0.00006762       0.00008253       0.22305451
Si       4.46708018       7.73720981      10.12062657      -0.00138994       0.00098962      -0.07506798
Si       2.68142139       7.73831069      15.17618584       0.00019566      -0.00031882       0.00542014
Si       2.68024811       7.73720982       7.58805938      -0.00006145      -0.00001748      -0.09355216
C        2.68024811       7.73720982       5.68435955      -0.00043503      -0.00030905       0.08253344
C        2.68024811       7.73720982      13.27662505       0.00026071       0.00023654       0.01099918
C        4.46708018       7.73720981       3.15844319      -0.00041678      -0.00024477       0.08360765
C        6.25391224       4.64232591      10.75070869       0.00204506      -0.00242892       0.03127773
C        6.25391224       4.64232591       0.63055283      -0.00019412      -0.00061269      -0.26630972
C        4.46708018       7.73720981       8.22281833       0.00024888      -0.00071605       0.11002547
Si       1.78683208       6.18976784       5.05623624       0.00000848      -0.00004397      -0.04642281
Si       0.89341603       7.73720984      12.64850174       0.00043323       0.00084409      -0.07586606
Si       0.89341603       7.73720984       2.52836107      -0.00008767      -0.00013370       0.22301543
Si       1.78683208       6.18976784      10.12062657       0.00198463      -0.00004937      -0.07515437
Si       5.35844071       6.18619217      15.17715239      -0.00005142      -0.00006788       0.00494655
Si       5.36049621       6.18976786       7.58805938      -0.00006891      -0.00019360      -0.09381878
C        5.36049621       6.18976786       5.68435955      -0.00001671      -0.00060935       0.08222671
C        5.36049621       6.18976786      13.27662505      -0.00201729      -0.00416776       0.03450266
C        1.78683208       6.18976784       3.15844319       0.00002340      -0.00011750       0.08355340
C        0.89341603       7.73720984      10.75070869       0.00086775       0.00225100       0.03212156
C        0.89341603       7.73720984       0.63055283      -0.00103538      -0.00065640      -0.26631924
C        1.78683208       6.18976784       8.22281833      -0.00087880      -0.00009539       0.10991003
C        2.68025625       4.64181727      18.61443821       0.00035738      -0.00006299      -0.00328176
C        4.02078930       5.41589233      18.61617149      -0.00044326      -0.00059830      -0.00372501
C        1.33939946       6.96276802      18.62147830       0.00054713       0.00061578      -0.00097008
C        2.67993315       7.73669168      18.61996267      -0.00001877      -0.00008767       0.00164808
C        5.36002042       4.64270496      18.61619089      -0.00033887      -0.00089886      -0.00396053
C        6.69882503       5.41566776      18.62014787       0.00044557      -0.00036124      -0.00231322
C        4.02083092       6.96180479      18.62013332      -0.00094771       0.00003085      -0.00233636
C        5.36040631       7.73590116      18.62152631       0.00017072       0.00078033      -0.00115777
C        4.03389116       3.89034021      22.67514056       0.00084409       0.00046897       0.02170140
O        4.05905297       3.93427643      23.84453323       0.00056770       0.00131563       0.02424062
O        4.00896520       3.84673058      21.49926293      -0.00116677      -0.00168176       0.02030092
