101
Lattice="17.265850017958673 -0.00010359510010775204 0.0 -8.633011338229426 14.952692293502695 0.0 -0.0 0.0 15.000000722551901" Properties=species:S:1:pos:R:3:forces:R:3 energy=-26794.45439319449 free_energy=-26794.45439319449 pbc="T T T"
C        1.20639482       0.66565464       5.01816217      -0.00028951      -0.00238316      -0.01311931
C       -0.02667253       1.37756437       5.01814706      -0.00195250      -0.00141668      -0.01322961
C       -0.02647912       2.80162426       5.00779089      -0.00459585      -0.00012496      -0.00385974
C       -1.25969605       3.51351443       5.00456560      -0.00359723       0.00041755      -0.00174861
C       -1.26005012       4.93761650       4.99485627       0.00066077      -0.00241067       0.00505556
C       -2.49328013       5.64963636       4.99504615      -0.00186559      -0.00326916       0.00526973
C       -2.49341017       7.07354752       4.99303399      -0.00302336       0.00030879       0.00025325
C       -3.72671539       7.78533711       4.99666850      -0.00323548       0.00254205      -0.00606189
C       -3.72737668       9.20952336       4.99666245       0.00182394       0.00188770      -0.00385537
C       -4.96055975       9.92190698       5.00020561       0.00115880      -0.00473880      -0.00289506
C       -4.96060980      11.34588530       5.00350915       0.00065537      -0.00237313      -0.00128529
C       -6.19369605      12.05774512       5.00994130      -0.00198078       0.00039981      -0.00461667
C       -6.19380711      13.48191803       5.01537777       0.00131743       0.00140819      -0.01469694
C       -7.42686015      14.19423564       5.02031994       0.00101430      -0.00461462      -0.01026256
C        3.67268690       0.66579941       5.00468666       0.00205071      -0.00291974      -0.00175632
C        2.43956385       1.37785343       5.00785277       0.00222760      -0.00397827      -0.00394073
C        2.43990359       2.80195525       4.99640155      -0.00041369      -0.00190647       0.00255696
C        1.20665663       3.51397066       4.99636354      -0.00145113      -0.00112820       0.00255233
C        1.20669754       4.93802084       4.98366711       0.00064740      -0.00186996       0.00591791
C       -0.02677319       5.64983779       4.98578876       0.00108501      -0.00212116       0.00552864
C       -0.02695812       7.07393452       4.98073176       0.00304624      -0.00065512       0.00485424
C       -1.26044513       7.78564733       4.98675711       0.00174218       0.00109786       0.00347536
C       -1.26062849       9.20960512       4.98570392      -0.00045071       0.00344014       0.00766446
C       -2.49403605       9.92182840       4.99137919       0.00175426      -0.00142542       0.00565180
C       -2.49436454      11.34608227       4.99267985       0.00436136      -0.00309355       0.00736184
C       -3.72762746      12.05789384       5.00002695       0.00510981       0.00040803      -0.00003882
C       -3.72726496      13.48191944       5.00243205       0.00131486       0.00232299      -0.00225846
C       -4.96043773      14.19427522       5.00931140      -0.00008947      -0.00220164      -0.00847384
C        6.13940225       0.66553022       4.99523096      -0.00190956      -0.00319151       0.00512729
C        4.90616556       1.37753860       4.99502885      -0.00240964      -0.00054996       0.00486761
C        4.90632161       2.80170233       4.98592442      -0.00233250      -0.00018975       0.00543454
C        3.67313804       3.51401629       4.98374249      -0.00183371      -0.00027254       0.00587086
C        3.67326734       4.93812650       4.96866021      -0.00087263      -0.00160308       0.00047283
C        2.43994682       5.65018443       4.96863300      -0.00087289      -0.00146039       0.00046306
C        2.44039064       7.07418190       4.95733552      -0.00450457      -0.00095774      -0.00364017
C        1.20657042       7.78561805       4.97043903       0.00037178       0.00059932      -0.00467915
C        1.20590502       9.20970533       4.97343115       0.00337432      -0.00097496      -0.00101610
C       -0.02760954       9.92195503       4.98142050       0.00482725      -0.00472389       0.00548596
C       -0.02744582      11.34586969       4.98585290      -0.00171570      -0.00166967       0.00689827
C       -1.26084056      12.05767658       4.99036144       0.00138660       0.00147299       0.01111539
C       -1.26083563      13.48187991       4.99496116       0.00101404      -0.00005399      -0.00084486
C       -2.49412436      14.19423640       4.99771451       0.00302850      -0.00405412       0.00185274
C        8.60567370       0.66516826       4.99673443       0.00388442      -0.00138017      -0.00616628
C        7.37260222       1.37736418       4.99316283       0.00184400      -0.00234819       0.00012161
C        7.37281223       2.80119780       4.98682507       0.00014681       0.00209082       0.00343371
C        6.13971386       3.51358547       4.98082162      -0.00200212       0.00237647       0.00483445
C        6.13928672       4.93769978       4.97046741       0.00039981       0.00055433      -0.00465241
C        4.90626099       5.65050685       4.95736030       0.00138068      -0.00438193      -0.00364171
C        4.90579352       7.07380128       4.94291833       0.00212887      -0.00065640       0.00043297
C        3.67323466       7.78542227       4.94291489      -0.00175761       0.00147633       0.00043966
C        3.67265936       9.20867753       4.95830089       0.00053248       0.00437936       0.00022677
C        2.43955286       9.92139658       4.97130167       0.00167919      -0.00300896      -0.00003497
C        2.43904574      11.34545441       4.98374816       0.00391965      -0.00187151       0.00345016
C        1.20582683      12.05746209       4.98856952       0.00289712       0.00121305       0.00260221
C        1.20599868      13.48128617       4.99513022       0.00021623       0.00569808      -0.00058390
C       -0.02715825      14.19376832       4.99667708      -0.00034916      -0.00022189      -0.00589245
C       11.07290661       0.66489631       5.00007818      -0.00458453      -0.00119016      -0.00271277
C        9.83937753       1.37668282       4.99660074       0.00091326       0.00277191      -0.00383172
C        9.83958141       2.80094943       4.99127696      -0.00204968       0.00092277       0.00573176
C        8.60608159       3.51301721       4.98566292       0.00329435       0.00139097       0.00769840
C        8.60648819       4.93702739       4.98135583      -0.00638353       0.00181006       0.00552016
C        7.37291374       5.64916670       4.97340937      -0.00261301       0.00246749      -0.00102947
C        7.37243297       7.07338997       4.97127795      -0.00336197       0.00002263      -0.00004808
C        6.13865168       7.78493784       4.95829932       0.00343885       0.00248960       0.00020903
C        6.13908664       9.20892456       4.97244572      -0.00146424       0.00060267       0.00261507
C        4.90564874       9.92105125       4.97244320       0.00117448      -0.00109658       0.00262227
C        4.90595098      11.34518881       4.98987630      -0.00213453      -0.00178949       0.00047283
C        3.67252264      12.05705521       4.99100070       0.00132489       0.00367051       0.00087469
C        3.67272453      13.48131870       4.99898455       0.00035507       0.00173087       0.00331878
C        2.43924438      14.19353927       4.99834452       0.00247160      -0.00122050       0.00251402
C       13.53915794       0.66488541       5.00978636       0.00137143      -0.00133826      -0.00446086
C       12.30612806       1.37684333       5.00332878      -0.00234356      -0.00040341      -0.00114594
C       12.30625219       2.80065254       4.99984566      -0.00219675       0.00474883       0.00003291
C       11.07317979       3.51279922       4.99251806      -0.00477582       0.00221938       0.00745980
C       11.07268008       4.93687193       4.99021539       0.00062709       0.00197152       0.01115525
C        9.83954804       5.64913236       4.98574781      -0.00057258      -0.00230525       0.00691704
C        9.83917442       7.07298537       4.98850025      -0.00035661       0.00306887       0.00267960
C        8.60595376       7.78498887       4.98371795      -0.00362551       0.00234279       0.00352113
C        8.60547860       9.20901817       4.99102603       0.00251222       0.00291280       0.00089269
C        7.37226986       9.92126308       4.98989753      -0.00050805      -0.00281433       0.00049417
C        7.37219909      11.34522551       5.00327064       0.00250734      -0.00040212      -0.00787169
C        6.13917123      12.05711158       5.00324447      -0.00163034       0.00200546      -0.00786783
C        6.13920006      13.48109090       5.01146964       0.00016789       0.00526279      -0.00359852
C        4.90623624      14.19352318       5.00705737      -0.00254668      -0.00132360       0.00232299
C       16.00598682       0.66519030       5.02028437      -0.00439607      -0.00128221      -0.01042120
C       14.77257544       1.37688466       5.01527785       0.00058467       0.00195070      -0.01477870
C       14.77280730       2.80119949       5.00918535      -0.00178100      -0.00110995      -0.00855483
C       13.53930771       3.51298917       5.00226103       0.00136937       0.00235744      -0.00220035
C       13.53962311       4.93709017       4.99753759      -0.00499642       0.00067311       0.00192216
C       12.30606842       5.64898661       4.99481078      -0.00048825       0.00079936      -0.00088626
C       12.30575134       7.07333958       4.99657708      -0.00014064      -0.00051808      -0.00578987
C       11.07215223       7.78505570       4.99509009       0.00476888       0.00293363      -0.00054019
C       11.07236090       9.20921382       4.99841188      -0.00243946       0.00133003       0.00245052
C        9.83882313       9.92133227       4.99907176       0.00123747       0.00102587       0.00324807
C        9.83884755      11.34569110       5.00718094       0.00008176      -0.00297065       0.00218904
C        8.60537969      12.05724882       5.01153932       0.00441561       0.00273643      -0.00370239
C        8.60580860      13.48151269       5.01956936      -0.00063815       0.00175041      -0.00822007
C        7.37242806      14.19360317       5.01954302       0.00180594       0.00027794      -0.00825324
C        4.33602245       7.51017155       9.20535093       0.00174989       0.00301385       0.02204541
O        4.31480324       7.47341872      10.37910871      -0.00092637      -0.00160385      -0.01390710
O        4.35742500       7.54724030       8.03031189       0.00128529       0.00221629       0.01489157
