179
Lattice="10.720992125991367 0.0 0.0 -5.360496062995684 9.284647205911675 0.0 0.0 0.0 34.99999747733031" Properties=species:S:1:pos:R:3:forces:R:3 energy=-73227.22454708054 free_energy=-73227.22454708054 pbc="T T T"
Si       1.78683208      -0.00000002       5.05623624       0.00036767       0.00004654      -0.02513562
Si       0.89341603       1.54744198      12.64850174       0.00120508       0.00058827      -0.16258217
Si       0.89341603       1.54744198       2.52836107       0.00030545       0.00032242       0.27065952
Si       1.78683208      -0.00000002      10.12062657      -0.00066232      -0.00167944      -0.07234544
Si       0.00552614      -0.00279562      15.17087761      -0.00536178       0.00276651       0.00107729
Si       0.00000000       0.00000000       7.58805938       0.00010747      -0.00007893      -0.09740110
C        0.00000000       0.00000000       5.68435955       0.00000360       0.00002160       0.08445714
C        0.00000000       0.00000000      13.27662505       0.00472363      -0.00255722      -0.04274768
C        1.78683208      -0.00000002       3.15844319       0.00192653      -0.00005348       0.08400103
C        0.89341603       1.54744198      10.75070869      -0.00185377       0.00152492       0.03609829
C        0.89341603       1.54744198       0.63055283       0.00273463       0.00468249      -0.19376168
C        1.78683208      -0.00000002       8.22281833       0.00221269       0.00050162       0.10272971
Si       1.78683208       3.09488391       5.05623624       0.00021006       0.00024657      -0.02516801
Si       3.57366413       0.00000002      12.64850174       0.00003882       0.00104515      -0.16256854
Si       3.57366413       0.00000002       2.52836107       0.00037795       0.00015272       0.27062481
Si       1.78683208       3.09488391      10.12062657      -0.00079036       0.00219135      -0.07248531
Si       0.00310988       3.09754686      15.17087948      -0.00277628      -0.00257265       0.00097342
Si       0.00000000       3.09488393       7.58805938       0.00016558       0.00042577      -0.09733888
C        0.00000000       3.09488393       5.68435955      -0.00001054       0.00220575       0.08454121
C        0.00000000       3.09488393      13.27662505       0.00357178       0.00478431      -0.04287932
C        1.78683208       3.09488391       3.15844319       0.00098550       0.00177715       0.08384573
C        3.57366413       0.00000002      10.75070869       0.00324602      -0.00257470       0.03630192
C        3.57366413       0.00000002       0.63055283       0.00539469       0.00006248      -0.19415428
C        1.78683208       3.09488391       8.22281833       0.00127887       0.00110197       0.10273305
Si      -0.89341603       1.54744195       5.05623624      -0.00018281       0.00027357      -0.02514436
Si      -1.78683208       3.09488395      12.64850174      -0.00056076       0.00104310      -0.16063610
Si      -1.78683208       3.09488395       2.52836107      -0.00030442       0.00025531       0.27055281
Si      -0.89341603       1.54744195      10.12062657       0.00194401       0.00072274      -0.07305070
Si       2.67956223       1.54627279      15.17178124       0.00139225       0.00232993      -0.00127372
Si       2.68024811       1.54744196       7.58805938       0.00030853       0.00021032      -0.09777828
C        2.68024811       1.54744196       5.68435955       0.00189927       0.00109066       0.08422960
C        2.68024811       1.54744196      13.27662505       0.00203657       0.00093100      -0.02012891
C       -0.89341603       1.54744195       3.15844319      -0.00091891       0.00171133       0.08406710
C       -1.78683208       3.09488395      10.75070869       0.00100016       0.00378441       0.03674955
C       -1.78683208       3.09488395       0.63055283      -0.00273488       0.00466321      -0.19408281
C       -0.89341603       1.54744195       8.22281833      -0.00157223       0.00153572       0.10294877
C       -0.00045203      -0.00035319      18.59249321       0.00000900      -0.00005271       0.00570965
C        1.34048854       0.77400335      18.59419976      -0.00103847      -0.00100222       0.00267035
C       -1.34124205       2.32040515      18.59418346       0.00024528       0.00087006       0.00422175
C       -0.00029908       3.09470477      18.59274391      -0.00028951      -0.00090066       0.00344451
C        2.67968564       0.00075153      18.59418188       0.00036741      -0.00129352       0.00279685
C        4.01901019       0.77440743      18.59398001      -0.00034787      -0.00010002       0.00159228
C        1.34089591       2.32068079      18.59402853      -0.00000026       0.00058930       0.00141359
C        2.67999721       3.09385006      18.59315905       0.00009642       0.00000720      -0.00017946
Si      -0.89341603       4.64232588       5.05623624      -0.00005579       0.00024400      -0.02519655
Si      -1.78683208       6.18976788      12.64850174      -0.00083689      -0.00051294      -0.15168043
Si      -1.78683208       6.18976788       2.52836107       0.00027459      -0.00007996       0.27074436
Si      -0.89341603       4.64232588      10.12062657       0.00018332      -0.00168947      -0.07282161
Si      -2.68356977       4.63926724      15.17083865       0.00301899       0.00291486       0.00110095
Si      -2.68024811       4.64232589       7.58805938      -0.00003214      -0.00010850      -0.09755742
C       -2.68024811       4.64232589       5.68435955      -0.00000540       0.00000694       0.08443117
C       -2.68024811       4.64232589      13.27662505      -0.00346070      -0.00242121      -0.04304772
C       -0.89341603       4.64232588       3.15844319       0.00002083       0.00108732       0.08375394
C       -1.78683208       6.18976788      10.75070869      -0.00111175      -0.00040058       0.03901572
C       -1.78683208       6.18976788       0.63055283       0.00278528      -0.00154909      -0.19434763
C       -0.89341603       4.64232588       8.22281833      -0.00000720       0.00169924       0.10290172
Si      -0.89341603       7.73720981       5.05623624       0.00018229      -0.00010876      -0.02519990
Si       0.89341603       4.64232591      12.64850174       0.00189465      -0.00037075      -0.17101924
Si       0.89341603       4.64232591       2.52836107      -0.00005965       0.00027588       0.27081738
Si      -0.89341603       7.73720981      10.12062657      -0.00051756       0.00194041      -0.07310829
Si      -2.68542911       7.74057758      15.17087560       0.00508179      -0.00323779       0.00110018
Si      -2.68024811       7.73720982       7.58805938       0.00018743      -0.00015529      -0.09745792
C       -2.68024811       7.73720982       5.68435955       0.00192164      -0.00108732       0.08449236
C       -2.68024811       7.73720982      13.27662505      -0.00229008       0.00146553      -0.04241703
C       -0.89341603       7.73720981       3.15844319       0.00095259      -0.00054970       0.08377683
C        0.89341603       4.64232591      10.75070869       0.00108938      -0.00095079       0.03439776
C        0.89341603       4.64232591       0.63055283      -0.00004011       0.00316451      -0.19433940
C       -0.89341603       7.73720981       8.22281833       0.00116600      -0.00116574       0.10297705
Si      -3.57366413       6.18976784       5.05623624       0.00019566      -0.00027022      -0.02517573
Si      -4.46708018       7.73720984      12.64850174       0.00025223      -0.00014192      -0.17000006
Si      -4.46708018       7.73720984       2.52836107       0.00013215      -0.00040649       0.27076904
Si      -3.57366413       6.18976784      10.12062657       0.00071939      -0.00025788      -0.07267043
Si       0.00570068       6.18666409      15.17203111      -0.00548493       0.00298377      -0.00156657
Si       0.00000000       6.18976786       7.58805938       0.00015401      -0.00004345      -0.09781685
C        0.00000000       6.18976786       5.68435955      -0.00000977       0.00001594       0.08433218
C        0.00000000       6.18976786      13.27662505       0.00511701      -0.00268243      -0.01474785
C       -3.57366413       6.18976784       3.15844319       0.00104875      -0.00172932       0.08386296
C       -4.46708018       7.73720984      10.75070869       0.00196407      -0.00006968       0.03441807
C       -4.46708018       7.73720984       0.63055283       0.00270763      -0.00469175      -0.19390772
C       -3.57366413       6.18976784       8.22281833       0.00081967      -0.00167559       0.10285133
C       -2.68081724       4.64196071      18.59273354       0.00080321       0.00012367       0.00382246
C       -1.33983658       5.41624718      18.59416904      -0.00031573      -0.00057901       0.00440918
C       -4.02186782       6.96282168      18.59427740       0.00091840       0.00018383       0.00275622
C       -2.68076480       7.73692414      18.59248291      -0.00047308       0.00007636       0.00553533
C       -0.00028057       4.64276856      18.59431640       0.00003291      -0.00019026       0.00263332
C        1.33933634       5.41573988      18.59407937       0.00099913      -0.00058904       0.00202166
C       -1.33992210       6.96268736      18.59397273       0.00017663      -0.00047540       0.00538466
C       -0.00042557       7.73591309      18.59416859       0.00023346       0.00061989       0.00427754
Si       7.14732829      -0.00000002       5.05623624      -0.00024323      -0.00001954      -0.02519527
Si       6.25391224       1.54744198      12.64850174      -0.00160900       0.00142002      -0.17103055
Si       6.25391224       1.54744198       2.52836107      -0.00005116       0.00015787       0.27043789
Si       7.14732829      -0.00000002      10.12062657      -0.00203940      -0.00078573      -0.07279642
Si       5.36127866       0.00399998      15.17087729      -0.00087546      -0.00363245       0.00101173
Si       5.36049621       0.00000000       7.58805938      -0.00006428       0.00014707      -0.09737205
C        5.36049621       0.00000000       5.68435955       0.00002365      -0.00001363       0.08454276
C        5.36049621       0.00000000      13.27662505       0.00011544       0.00414025      -0.04271528
C        7.14732829      -0.00000002       3.15844319      -0.00203246      -0.00004139       0.08387658
C        6.25391224       1.54744198      10.75070869      -0.00337457       0.00047128       0.03437873
C        6.25391224       1.54744198       0.63055283      -0.00266649       0.00157300      -0.19422190
C        7.14732829      -0.00000002       8.22281833      -0.00141771       0.00027357       0.10290789
Si       7.14732829       3.09488391       5.05623624      -0.00015787       0.00015195      -0.02521789
Si       8.93416034       0.00000002      12.64850174      -0.00016918      -0.00103615      -0.15163415
Si       8.93416034       0.00000002       2.52836107      -0.00042963       0.00012007       0.27061272
Si       7.14732829       3.09488391      10.12062657      -0.00163754       0.00130432      -0.07232719
Si       5.36416192       3.09288572      15.17063996      -0.00497766       0.00263564       0.00143570
Si       5.36049621       3.09488393       7.58805938       0.00002880       0.00000386      -0.09738516
C        5.36049621       3.09488393       5.68435955       0.00002468       0.00000257       0.08443786
C        5.36049621       3.09488393      13.27662505       0.00232376      -0.00112717      -0.04808606
C        7.14732829       3.09488391       3.15844319      -0.00100144       0.00061475       0.08382593
C        8.93416034       0.00000002      10.75070869      -0.00077750      -0.00175529       0.03869896
C        8.93416034       0.00000002       0.63055283      -0.00540934       0.00002083      -0.19375396
C        7.14732829       3.09488391       8.22281833      -0.00050137       0.00020492       0.10269655
Si       4.46708018       1.54744195       5.05623624       0.00014835       0.00013035      -0.02521095
Si       3.57366413       3.09488395      12.64850174       0.00070397       0.00102124      -0.15739625
Si       3.57366413       3.09488395       2.52836107       0.00017689      -0.00002443       0.27050191
Si       4.46708018       1.54744195      10.12062657       0.00225331       0.00020749      -0.07250562
Si       8.03518632       1.55082183      15.17203151       0.00528362      -0.00321748      -0.00156529
Si       8.04074432       1.54744196       7.58805938      -0.00044017       0.00026868      -0.09777288
C        8.04074432       1.54744196       5.68435955      -0.00186893       0.00109169       0.08431779
C        8.04074432       1.54744196      13.27662505      -0.00715564       0.00438630      -0.01506718
C        4.46708018       1.54744195       3.15844319       0.00102381       0.00059110       0.08381051
C        3.57366413       3.09488395      10.75070869       0.00225383       0.00272023       0.03744915
C        3.57366413       3.09488395       0.63055283       0.00271817       0.00154960      -0.19428155
C        4.46708018       1.54744195       8.22281833       0.00032319       0.00054276       0.10273048
C        5.35997947      -0.00028552      18.59270503       0.00014167      -0.00074433       0.00351547
C        6.70075552       0.77374958      18.59429544      -0.00020415      -0.00013267       0.00263589
C        4.01891537       2.32075063      18.59311986      -0.00000103       0.00062452      -0.00007122
C        5.35958753       3.09467390      18.59164127      -0.00065486       0.00038155       0.00068957
C        8.04042796       0.00035564      18.59417688      -0.00064509      -0.00040212       0.00431868
C        9.37967536       0.77368116      18.59398882       0.00058467      -0.00038849       0.00536281
C        6.70034660       2.32055218      18.59404014      -0.00100144       0.00056179       0.00198463
C        8.04031467       3.09375649      18.59429365       0.00054842       0.00018615       0.00287321
Si       4.46708018       4.64232588       5.05623624      -0.00003085      -0.00022394      -0.02519398
Si       3.57366413       6.18976788      12.64850174      -0.00091763      -0.00142465      -0.16465576
Si       3.57366413       6.18976788       2.52836107      -0.00006531      -0.00037050       0.27072945
Si       4.46708018       4.64232588      10.12062657      -0.00066489      -0.00137297      -0.07266246
Si       2.67668995       4.64447791      15.17064235       0.00479588      -0.00299096       0.00137708
Si       2.68024811       4.64232589       7.58805938       0.00001851       0.00006916      -0.09737385
C        2.68024811       4.64232589       5.68435955      -0.00001543       0.00002160       0.08444197
C        2.68024811       4.64232589      13.27662505      -0.00213864       0.00141668      -0.04807963
C        4.46708018       4.64232588       3.15844319       0.00000540      -0.00115391       0.08376937
C        3.57366413       6.18976788      10.75070869      -0.00335940      -0.00159254       0.03577947
C        3.57366413       6.18976788       0.63055283      -0.00264438      -0.00467298      -0.19417485
C        4.46708018       4.64232588       8.22281833       0.00022060      -0.00075745       0.10277059
Si       4.46708018       7.73720981       5.05623624      -0.00019926      -0.00026585      -0.02512945
Si       6.25391224       4.64232591      12.64850174      -0.00059675      -0.00148713      -0.16473032
Si       6.25391224       4.64232591       2.52836107      -0.00007816      -0.00014424       0.27042555
Si       4.46708018       7.73720981      10.12062657      -0.00037718       0.00023500      -0.07263778
Si       2.67923297       7.73282695      15.17083880       0.00104001       0.00408291       0.00108449
Si       2.68024811       7.73720982       7.58805938      -0.00035147      -0.00024220      -0.09752554
C        2.68024811       7.73720982       5.68435955      -0.00188745      -0.00110043       0.08442397
C        2.68024811       7.73720982      13.27662505      -0.00266881      -0.00550679      -0.04323824
C        4.46708018       7.73720981       3.15844319      -0.00099733      -0.00164859       0.08403368
C        6.25391224       4.64232591      10.75070869       0.00129892      -0.00313906       0.03585198
C        6.25391224       4.64232591       0.63055283      -0.00002185      -0.00309175      -0.19420005
C        4.46708018       7.73720981       8.22281833      -0.00089243      -0.00178846       0.10282279
Si       1.78683208       6.18976784       5.05623624      -0.00014218      -0.00009976      -0.02518344
Si       0.89341603       7.73720984      12.64850174       0.00071348      -0.00002391      -0.16070346
Si       0.89341603       7.73720984       2.52836107      -0.00018872      -0.00016944       0.27067237
Si       1.78683208       6.18976784      10.12062657       0.00166479      -0.00072094      -0.07233079
Si       5.36110970       6.19077713      15.17183423      -0.00123593      -0.00213993      -0.00130946
Si       5.36049621       6.18976786       7.58805938       0.00000823      -0.00040186      -0.09758751
C        5.36049621       6.18976786       5.68435955       0.00001131      -0.00215638       0.08437178
C        5.36049621       6.18976786      13.27662505       0.00004602      -0.00260376      -0.01923237
C        1.78683208       6.18976784       3.15844319      -0.00094899      -0.00052116       0.08373749
C        0.89341603       7.73720984      10.75070869      -0.00022831       0.00216770       0.03684751
C        0.89341603       7.73720984       0.63055283      -0.00271946      -0.00161979      -0.19426998
C        1.78683208       6.18976784       8.22281833      -0.00151567      -0.00033193       0.10269577
C        2.67996314       4.64174828      18.59169833      -0.00016892       0.00015478       0.00059675
C        4.02046210       5.41584295      18.59346211      -0.00023654       0.00014604      -0.00031187
C        1.33898546       6.96261073      18.59431472      -0.00014372       0.00051756       0.00276574
C        2.67971084       7.73655962      18.59275491       0.00034067       0.00097136       0.00378929
C        5.35968291       4.64272994      18.59344238      -0.00043220      -0.00039158      -0.00035738
C        6.69876040       5.41582439      18.59415734      -0.00024091      -0.00011210       0.00154035
C        4.02056324       6.96197978      18.59417055      -0.00092868      -0.00026045       0.00159974
C        5.36005210       7.73583832      18.59428085       0.00025428       0.00122642       0.00277808
C        4.03470878       3.88883298      22.84037945       0.00001620      -0.00033347       0.01353866
O        4.06501743       3.94148834      24.01025490       0.00035687       0.00001054       0.00010182
O        4.00455352       3.83661920      21.66501120      -0.00010516      -0.00055690       0.00479691
