66
Lattice="8.315575849598094 0.0 0.0 4.157787924799047 7.20149657514819 0.0 0.0 0.0 26.05284881715612" Properties=species:S:1:pos:R:3:forces:R:3 energy=-465813.08674280724 free_energy=-465813.08674280724 pbc="T T T"
C        1.52444546       1.41273900      18.97154807       0.00071631      -0.00179360       0.00342985
C        2.90950523       2.24090550      18.98476734      -0.00086903      -0.00447089       0.00179592
C        2.91038669       3.81215351      18.97128031      -0.00264104       0.00785138       0.00503576
C        4.29572088       4.64101685      18.98649532      -0.00430480       0.00319691      -0.00133286
C        4.29618073       6.21261328      18.97231643       0.00595956       0.01235955      -0.00084409
C        5.68168539       7.04089869      18.98567124       0.00147504       0.01394206       0.00900349
C        4.29535166       1.41082891      18.97048368      -0.00029028       0.00807275      -0.00764646
C        5.68170451       2.23747615      18.98300860       0.00137271       0.02491836      -0.00774493
C        5.68210200       3.81460993      18.96978267       0.00161080      -0.00862245      -0.01145144
C        7.06760749       4.64106175      18.98651694       0.00751405       0.00271946      -0.00194298
C        7.06809977       6.21265070      18.97297170      -0.00300716       0.01192683      -0.00407931
C        8.45259242       7.04033489      18.98743664       0.01081612       0.00199595       0.00059058
C        7.06901864       1.41081727      18.97016852       0.00309278       0.00815734      -0.00463261
C        8.45390296       2.24088720      18.98461683       0.00331338      -0.00403637       0.00358000
C        8.45396533       3.81217596      18.97153560       0.00481079       0.00777065       0.00442127
C        9.83946915       4.64024516      18.98642297       0.00122102       0.00518694       0.00687873
C        9.83999886       6.21241371      18.97120048       0.00128915      -0.00387491       0.00893613
C       11.22640409       7.04030579      18.98697679      -0.00815785       0.00249680       0.00331441
Pt       1.61691716       2.00041655       7.49999997      -0.00289429       0.02616560      -0.65196723
Pt       4.38877633       2.00041655       7.49999997       0.00106675       0.02632964      -0.65262337
Pt       7.16063467       2.00041655       7.49999997      -0.00036690       0.02591132      -0.65186438
Pt       3.00284674       4.40091624       7.49999997      -0.00253382       0.03200792      -0.65106554
Pt       5.77470508       4.40091624       7.49999997      -0.00015735       0.02991119      -0.65089431
Pt       8.54656425       4.40091624       7.49999997      -0.00023320       0.03001532      -0.64919121
Pt       4.38877633       6.80141676       7.49999997      -0.00246286       0.02640086      -0.65223025
Pt       7.16063467       6.80141676       7.49999997      -0.00002134       0.02470650      -0.65130517
Pt       9.93249301       6.80141676       7.49999997       0.00019386       0.02546086      -0.65186438
Pt       1.61691716       0.40008314       9.76321283       0.00291846      -0.04139939       0.65570433
Pt       4.38877633       0.40008314       9.76321283       0.00244898      -0.04687661       0.65456456
Pt       7.16063467       0.40008314       9.76321283       0.00290252      -0.04374321       0.65082926
Pt       3.00284674       2.80058366       9.76321283      -0.00060704      -0.03919441       0.66360867
Pt       5.77470508       2.80058366       9.76321283       0.00490181      -0.04053910       0.65731409
Pt       8.54656425       2.80058366       9.76321283       0.00385306      -0.03807007       0.66213954
Pt       4.38877633       5.20108335       9.76321283       0.00188925      -0.04349972       0.65125117
Pt       7.16063467       5.20108335       9.76321283       0.00620587      -0.04442995       0.65387113
Pt       9.93249301       5.20108335       9.76321283       0.00021546      -0.04544322       0.65560328
Pt       3.00254655       1.13283589      12.11366772      -0.00419861      -0.00605906      -0.00187356
Pt       5.77393839       1.13204757      12.11236384      -0.00595596      -0.00335272       0.00476863
Pt       8.54586408       1.13300553      12.11316296      -0.00737598      -0.00513218      -0.00211936
Pt       4.38828571       3.53272189      12.11374422      -0.00621384      -0.00449249      -0.00016224
Pt       7.15985300       3.53279673      12.11381324      -0.00360160      -0.00277602      -0.00147684
Pt       9.93187017       3.53208741      12.11488013      -0.00726465       0.00207771      -0.00921766
Pt       5.77432340       5.93413629      12.11202373      -0.00470409      -0.01121207       0.00236362
Pt       8.54594058       5.93239584      12.11250437      -0.00487970       0.00230834      -0.00218467
Pt      11.31772159       5.93243825      12.11193725      -0.00828847       0.00258370      -0.00115802
Pt       1.59431542       1.93441998      14.47316414       0.00346765       0.00010439      -0.00859880
Pt       4.36640078       1.93429691      14.47261864       0.00055639      -0.00132438      -0.00796991
Pt       7.13767786       1.93432851      14.47201825       0.00672215       0.00006042      -0.00490978
Pt       2.98015104       4.33496707      14.47267435       0.00389779      -0.00879086      -0.00601998
Pt       5.75213411       4.33503775      14.47150269       0.00509336      -0.00516020      -0.00203991
Pt       8.52415294       4.33499118      14.47317994      -0.00012984      -0.00777090      -0.00808355
Pt       4.36611722       6.73592578      14.46858475       0.00807404      -0.00466270       0.01125166
Pt       7.13868155       6.73593492      14.46975309      -0.00134366      -0.00548262       0.00663859
Pt       9.91011496       6.73526635      14.46988198       0.00050368       0.00447886       0.00255259
Pt       1.52521299       0.68015922      16.87770104      -0.00256776       0.01396315       0.01087757
Pt       4.29563523       0.68127351      16.87904650       0.00425595       0.01203071      -0.00899655
Pt       7.06982608       0.68159449      16.87845110      -0.00623467       0.01221094      -0.00601330
Pt       2.91041246       3.08190791      16.88010840      -0.00108141       0.00795499      -0.00859288
Pt       5.68263752       3.08037202      16.87922695       0.00044146       0.01751076      -0.00868544
Pt       8.45544633       3.08190542      16.88031047      -0.00447115       0.00823859      -0.00952799
Pt       4.29724263       5.48149538      16.87584750      -0.00458273       0.01481907       0.01119510
Pt       7.06878581       5.48117523      16.87670733       0.00099682       0.01448997       0.00722429
Pt       9.84085120       5.48457547      16.87736426      -0.00400192      -0.00465601       0.00898061
C        5.66574193       2.86758060      22.10266590       0.01118636       0.00687410      -0.00267395
O        6.83895493       2.87428794      22.10412278       0.00653060       0.00016532      -0.00788557
O        4.49262955       2.86143040      22.09808069      -0.01607068      -0.00050882      -0.00685405
