179
Lattice="10.720992125991367 0.0 0.0 -5.360496062995684 9.284647205911675 0.0 0.0 0.0 34.99999747733031" Properties=species:S:1:pos:R:3:forces:R:3 energy=-74887.82307199559 free_energy=-74887.82307199559 pbc="T T T"
Si       1.78683208      -0.00000002       5.05623624       0.00011493       0.00000103      -0.05858464
Si       0.89341603       1.54744198      12.64850174       0.00025531       0.00114954       0.00971723
Si       0.89341603       1.54744198       2.52836107       0.00007739       0.00008587       0.14680768
Si       1.78683208      -0.00000002      10.12062657      -0.00059084      -0.00013833      -0.07264575
Si       0.00081623       0.00123956      15.19259713       0.00065743       0.00088292       0.00459328
Si       0.00000000       0.00000000       7.58805938       0.00001620      -0.00001568      -0.09358507
C        0.00000000       0.00000000       5.68435955      -0.00000463       0.00000720       0.09078514
C        0.00000000       0.00000000      13.27662505       0.00071657       0.00075899       0.18524310
C        1.78683208      -0.00000002       3.15844319       0.00125161       0.00001028       0.09221724
C        0.89341603       1.54744198      10.75070869      -0.00052373       0.00019566       0.02103471
C        0.89341603       1.54744198       0.63055283       0.00137271       0.00226077      -0.46500355
C        1.78683208      -0.00000002       8.22281833       0.00133749      -0.00004242       0.10931276
Si       1.78683208       3.09488391       5.05623624       0.00005142       0.00007688      -0.05857873
Si       3.57366413       0.00000002      12.64850174       0.00043015       0.00021726       0.01952059
Si       3.57366413       0.00000002       2.52836107       0.00010233       0.00003831       0.14693263
Si       1.78683208       3.09488391      10.12062657      -0.00003934       0.00071065      -0.07220918
Si       0.00571878       3.09347721      15.19254392      -0.00207797      -0.00009359       0.00444698
Si       0.00000000       3.09488393       7.58805938       0.00016532       0.00007019      -0.09363546
C        0.00000000       3.09488393       5.68435955      -0.00007045       0.00126550       0.09084222
C        0.00000000       3.09488393      13.27662505       0.00717903       0.00041626       0.18378862
C        1.78683208       3.09488391       3.15844319       0.00068263       0.00105801       0.09206092
C        3.57366413       0.00000002      10.75070869       0.00132180      -0.00079499       0.02344640
C        3.57366413       0.00000002       0.63055283       0.00259167       0.00014655      -0.46511796
C        1.78683208       3.09488391       8.22281833       0.00048568       0.00089012       0.10908342
Si      -0.89341603       1.54744195       5.05623624      -0.00007585       0.00009025      -0.05858696
Si      -1.78683208       3.09488395      12.64850174      -0.00020646       0.00048105       0.02300186
Si      -1.78683208       3.09488395       2.52836107      -0.00009050       0.00006145       0.14684779
Si      -0.89341603       1.54744195      10.12062657       0.00130406      -0.00017689      -0.07267969
Si       2.67816643       1.55122129      15.19270435      -0.00104181      -0.00091377       0.00438296
Si       2.68024811       1.54744196       7.58805938       0.00004062       0.00016121      -0.09372545
C        2.68024811       1.54744196       5.68435955       0.00111354       0.00063763       0.09077254
C        2.68024811       1.54744196      13.27662505      -0.00001234       0.00514323       0.19014568
C       -0.89341603       1.54744195       3.15844319      -0.00060575       0.00108501       0.09226018
C       -1.78683208       3.09488395      10.75070869       0.00051062       0.00189516       0.02409869
C       -1.78683208       3.09488395       0.63055283      -0.00141848       0.00221372      -0.46518404
C       -0.89341603       1.54744195       8.22281833      -0.00089706       0.00110403       0.10944980
C       -0.00010331       0.00012130      18.88307276       0.00004834      -0.00009359       0.01449357
C        1.34032634       0.77407115      18.88380345       0.00015915      -0.00005914       0.00770791
C       -1.34052468       2.32108979      18.88473010      -0.00002365      -0.00013035       0.00853401
C       -0.00001145       3.09492859      18.88381975      -0.00005039       0.00012881       0.00465113
C        2.68012644       0.00015417      18.88459759      -0.00019412       0.00021803       0.00251762
C        4.01995539       0.77344397      18.88383446      -0.00013653       0.00002237      -0.00118939
C        1.34026186       2.32102012      18.88197441       0.00013961       0.00010876       0.00696743
C        2.67960617       3.09452678      18.87596873      -0.00028616      -0.00019669       0.00719163
Si      -0.89341603       4.64232588       5.05623624      -0.00002674       0.00004911      -0.05861832
Si      -1.78683208       6.18976788      12.64850174      -0.00087700      -0.00014295       0.01769793
Si      -1.78683208       6.18976788       2.52836107       0.00008125      -0.00002057       0.14681925
Si      -0.89341603       4.64232588      10.12062657       0.00028334      -0.00036278      -0.07285529
Si      -2.68526356       4.64357462      15.19259449       0.00110583       0.00017792       0.00439196
Si      -2.68024811       4.64232589       7.58805938      -0.00005554      -0.00001491      -0.09366349
C       -2.68024811       4.64232589       5.68435955       0.00003291       0.00003137       0.09081548
C       -2.68024811       4.64232589      13.27662505      -0.00563380       0.00106778       0.18488160
C       -0.89341603       4.64232588       3.15844319       0.00007868       0.00069934       0.09213291
C       -1.78683208       6.18976788      10.75070869       0.00014835      -0.00052322       0.02296998
C       -1.78683208       6.18976788       0.63055283       0.00140485      -0.00070320      -0.46502180
C       -0.89341603       4.64232588       8.22281833      -0.00016712       0.00070937       0.10950560
Si      -0.89341603       7.73720981       5.05623624       0.00002854      -0.00001954      -0.05859955
Si       0.89341603       4.64232591      12.64850174       0.00151721      -0.00096905       0.01227753
Si       0.89341603       4.64232591       2.52836107      -0.00004705       0.00007533       0.14699897
Si      -0.89341603       7.73720981      10.12062657       0.00007302       0.00054122      -0.07267994
Si      -2.68072953       7.73618718      15.19259697      -0.00100582      -0.00084898       0.00455959
Si      -2.68024811       7.73720982       7.58805938       0.00001466      -0.00009565      -0.09372082
C       -2.68024811       7.73720982       5.68435955       0.00119171      -0.00064020       0.09062239
C       -2.68024811       7.73720982      13.27662505       0.00096673      -0.00137940       0.18547912
C       -0.89341603       7.73720981       3.15844319       0.00062478      -0.00038129       0.09204215
C        0.89341603       4.64232591      10.75070869       0.00019875       0.00021854       0.02184975
C        0.89341603       4.64232591       0.63055283      -0.00017921       0.00156297      -0.46540181
C       -0.89341603       7.73720981       8.22281833       0.00052888      -0.00040495       0.10945160
Si      -3.57366413       6.18976784       5.05623624       0.00002185      -0.00005271      -0.05859287
Si      -4.46708018       7.73720984      12.64850174       0.00033476      -0.00000977       0.01670754
Si      -4.46708018       7.73720984       2.52836107       0.00004165      -0.00011493       0.14686938
Si      -3.57366413       6.18976784      10.12062657       0.00026817      -0.00075128      -0.07247066
Si       0.00258353       6.19070562      15.19293748      -0.00074999       0.00045689       0.00428140
Si       0.00000000       6.18976786       7.58805938       0.00008870       0.00001234      -0.09374268
C        0.00000000       6.18976786       5.68435955      -0.00004139       0.00000283       0.09087281
C        0.00000000       6.18976786      13.27662505       0.00340363       0.00038978       0.19432835
C       -3.57366413       6.18976784       3.15844319       0.00058827      -0.00113488       0.09216865
C       -4.46708018       7.73720984      10.75070869       0.00081607      -0.00049494       0.02273421
C       -4.46708018       7.73720984       0.63055283       0.00128324      -0.00231888      -0.46497192
C       -3.57366413       6.18976784       8.22281833       0.00063172      -0.00077827       0.10932254
C       -2.68028252       4.64209672      18.88379899      -0.00000951      -0.00006325       0.00505402
C       -1.33976707       5.41594892      18.88467905       0.00019797       0.00000926       0.00850649
C       -4.02074656       6.96301177      18.88376403      -0.00013138      -0.00005399       0.00810232
C       -2.68023212       7.73684085      18.88307670      -0.00018152       0.00008228       0.01439586
C        0.00010758       4.64249390      18.88464537      -0.00026431       0.00013318       0.00281947
C        1.33965977       5.41585800      18.88173521      -0.00015349       0.00028951       0.00606343
C       -1.33981939       6.96289859      18.88335866       0.00016995       0.00005219       0.01956944
C        0.00002815       7.73639986      18.88376254      -0.00006813      -0.00007790       0.01387804
Si       7.14732829      -0.00000002       5.05623624      -0.00006273       0.00001054      -0.05860933
Si       6.25391224       1.54744198      12.64850174      -0.00081375       0.00040238       0.01393409
Si       6.25391224       1.54744198       2.52836107       0.00000437       0.00001954       0.14682285
Si       7.14732829      -0.00000002      10.12062657      -0.00076773      -0.00064895      -0.07253313
Si       5.36244844      -0.00057786      15.19253926       0.00168279      -0.00095902       0.00446986
Si       5.36049621       0.00000000       7.58805938      -0.00002057       0.00006016      -0.09365860
C        5.36049621       0.00000000       5.68435955      -0.00003137      -0.00002468       0.09078514
C        5.36049621       0.00000000      13.27662505       0.00109452       0.00066283       0.18406322
C        7.14732829      -0.00000002       3.15844319      -0.00126704      -0.00000026       0.09221621
C        6.25391224       1.54744198      10.75070869      -0.00162031       0.00054662       0.02225367
C        6.25391224       1.54744198       0.63055283      -0.00120430       0.00078316      -0.46529768
C        7.14732829      -0.00000002       8.22281833      -0.00101147       0.00007533       0.10933590
Si       7.14732829       3.09488391       5.05623624      -0.00003780       0.00001260      -0.05859801
Si       8.93416034       0.00000002      12.64850174      -0.00022549      -0.00044711       0.01666769
Si       8.93416034       0.00000002       2.52836107      -0.00012804       0.00002648       0.14689664
Si       7.14732829       3.09488391      10.12062657      -0.00129661       0.00104541      -0.07250897
Si       5.36081496       3.09719169      15.19219038       0.00048002      -0.00006119       0.00478431
Si       5.36049621       3.09488393       7.58805938      -0.00005682       0.00007045      -0.09354496
C        5.36049621       3.09488393       5.68435955       0.00002571      -0.00003342       0.09090444
C        5.36049621       3.09488393      13.27662505      -0.00078187       0.00269760       0.17770000
C        7.14732829       3.09488391       3.15844319      -0.00063969       0.00036407       0.09201310
C        8.93416034       0.00000002      10.75070869      -0.00077159      -0.00080373       0.02269101
C        8.93416034       0.00000002       0.63055283      -0.00261481      -0.00000206      -0.46501177
C        7.14732829       3.09488391       8.22281833      -0.00023680       0.00013370       0.10924617
Si       4.46708018       1.54744195       5.05623624       0.00002751       0.00001003      -0.05857102
Si       3.57366413       3.09488395      12.64850174       0.00021752       0.00124596       0.01049576
Si       3.57366413       3.09488395       2.52836107       0.00001646      -0.00001980       0.14686938
Si       4.46708018       1.54744195      10.12062657       0.00070782       0.00074999      -0.07262981
Si       8.03859639       1.54638638      15.19297135       0.00042552      -0.00014732       0.00419681
Si       8.04074432       1.54744196       7.58805938      -0.00013961       0.00003908      -0.09384321
C        8.04074432       1.54744196       5.68435955      -0.00115211       0.00062915       0.09076791
C        8.04074432       1.54744196      13.27662505      -0.00384329      -0.00013395       0.19477983
C        4.46708018       1.54744195       3.15844319       0.00053042       0.00036458       0.09201515
C        3.57366413       3.09488395      10.75070869       0.00120559       0.00097676       0.02171939
C        3.57366413       3.09488395       0.63055283       0.00128067       0.00068263      -0.46534730
C        4.46708018       1.54744195       8.22281833       0.00049931       0.00011827       0.10923975
C        5.36055350      -0.00027214      18.88357287       0.00008870      -0.00001928       0.00484267
C        6.70092569       0.77406231      18.88365836       0.00025402      -0.00029388       0.00837794
C        4.01994320       2.32108723      18.87796958      -0.00009565      -0.00059650       0.00341005
C        5.36105434       3.09479462      18.87493495       0.00018692      -0.00015658       0.00632080
C        8.04074010       0.00048508      18.88377809      -0.00022934       0.00006608       0.01404774
C        9.38045327       0.77399495      18.88337983      -0.00002005       0.00006428       0.01963243
C        6.70093352       2.32104295      18.88190971       0.00034221      -0.00013293       0.00576544
C        8.04067926       3.09448651      18.88470115       0.00001954      -0.00006068       0.00305061
Si       4.46708018       4.64232588       5.05623624      -0.00003805      -0.00004191      -0.05856870
Si       3.57366413       6.18976788      12.64850174      -0.00064663      -0.00125341       0.01660830
Si       3.57366413       6.18976788       2.52836107      -0.00001594      -0.00009976       0.14686424
Si       4.46708018       4.64232588      10.12062657      -0.00006788      -0.00105467      -0.07233027
Si       2.67966770       4.64009248      15.19210845      -0.00032910       0.00001723       0.00486787
Si       2.68024811       4.64232589       7.58805938       0.00004371      -0.00003651      -0.09361695
C        2.68024811       4.64232589       5.68435955      -0.00002005       0.00003008       0.09084916
C        2.68024811       4.64232589      13.27662505       0.00026945      -0.00230037       0.17627149
C        4.46708018       4.64232588       3.15844319      -0.00000823      -0.00066052       0.09202261
C        3.57366413       6.18976788      10.75070869      -0.00163754      -0.00066309       0.02296972
C        3.57366413       6.18976788       0.63055283      -0.00122385      -0.00236927      -0.46513776
C        4.46708018       4.64232588       8.22281833      -0.00002520      -0.00045560       0.10904897
Si       4.46708018       7.73720981       5.05623624      -0.00005682      -0.00010413      -0.05857487
Si       6.25391224       4.64232591      12.64850174      -0.00045329      -0.00077236       0.00678360
Si       6.25391224       4.64232591       2.52836107      -0.00001980      -0.00000874       0.14697068
Si       4.46708018       7.73720981      10.12062657      -0.00050728       0.00029208      -0.07274448
Si       2.67811496       7.73718227      15.19251342      -0.00152081       0.00130175       0.00450226
Si       2.68024811       7.73720982       7.58805938      -0.00015555      -0.00006273      -0.09364421
C        2.68024811       7.73720982       5.68435955      -0.00112691      -0.00064278       0.09077203
C        2.68024811       7.73720982      13.27662505      -0.00303133      -0.00168819       0.18353306
C        4.46708018       7.73720981       3.15844319      -0.00055947      -0.00110995       0.09225144
C        6.25391224       4.64232591      10.75070869       0.00073611      -0.00154960       0.02059248
C        6.25391224       4.64232591       0.63055283      -0.00006402      -0.00148687      -0.46535347
C        4.46708018       7.73720981       8.22281833      -0.00043657      -0.00101559       0.10938141
Si       1.78683208       6.18976784       5.05623624      -0.00002520      -0.00007405      -0.05858490
Si       0.89341603       7.73720984      12.64850174       0.00059084      -0.00002340       0.01137173
Si       0.89341603       7.73720984       2.52836107      -0.00005785      -0.00006479       0.14686450
Si       1.78683208       6.18976784      10.12062657       0.00056461      -0.00019180      -0.07248480
Si       5.36191340       6.18636893      15.19273589       0.00152724       0.00054276       0.00435596
Si       5.36049621       6.18976786       7.58805938      -0.00001054      -0.00022420      -0.09373342
C        5.36049621       6.18976786       5.68435955       0.00002520      -0.00127578       0.09074400
C        5.36049621       6.18976786      13.27662505       0.00015915      -0.00597036       0.19071132
C        1.78683208       6.18976784       3.15844319      -0.00061784      -0.00031445       0.09203469
C        0.89341603       7.73720984      10.75070869      -0.00049957       0.00092148       0.02153453
C        0.89341603       7.73720984       0.63055283      -0.00127604      -0.00091300      -0.46509714
C        1.78683208       6.18976784       8.22281833      -0.00064483      -0.00027588       0.10928448
C        2.67948842       4.64221733      18.87474057      -0.00012856       0.00017509       0.00691807
C        4.02051047       5.41599010      18.87793506       0.00017175       0.00043786       0.00342857
C        1.33969233       6.96290505      18.88354489      -0.00011904      -0.00000720       0.00841728
C        2.68005634       7.73717329      18.88349038      -0.00005811      -0.00008176       0.00504862
C        5.36099344       4.64253557      18.87609120       0.00012496       0.00024888       0.00730296
C        6.70032801       5.41592119      18.88197019      -0.00011801       0.00024348       0.00759632
C        4.02059414       6.96346043      18.88376596       0.00017355       0.00007816      -0.00127758
C        5.36052442       7.73682179      18.88456436      -0.00006119      -0.00022934       0.00251222
C        4.02121921       3.86310510      22.26065772      -0.01031629       0.00124853       0.02016413
O        5.19446763       3.76618532      22.25427436       0.01679342      -0.00144316       0.01379063
O        2.84786694       3.96006197      22.24933906      -0.00563663       0.00047025       0.01465555
