179
Lattice="10.720992125991367 0.0 0.0 -5.360496062995684 9.284647205911675 0.0 0.0 0.0 34.99999747733031" Properties=species:S:1:pos:R:3:forces:R:3 energy=-72984.13874087625 free_energy=-72984.13874087625 pbc="T T T"
Si       1.78683208      -0.00000002       5.05623624      -0.00002134       0.00004397      -0.04619372
Si       0.89341603       1.54744198      12.64850174      -0.00099939       0.00014141      -0.06464962
Si       0.89341603       1.54744198       2.52836107       0.00009744       0.00005785       0.22354251
Si       1.78683208      -0.00000002      10.12062657      -0.00010516      -0.00170516      -0.07492863
Si      -0.00685203      -0.00268596      15.17639932       0.00136706      -0.00042783       0.00156529
Si       0.00000000       0.00000000       7.58805938      -0.00014655      -0.00008510      -0.09347785
C        0.00000000       0.00000000       5.68435955      -0.00019643       0.00023063       0.08252033
C        0.00000000       0.00000000      13.27662505      -0.00622824      -0.00182420       0.01292751
C        1.78683208      -0.00000002       3.15844319       0.00069445       0.00015735       0.08337548
C        0.89341603       1.54744198      10.75070869      -0.00134880       0.00070705       0.03430340
C        0.89341603       1.54744198       0.63055283       0.00079601       0.00156683      -0.26681263
C        1.78683208      -0.00000002       8.22281833       0.00046254       0.00026714       0.10929554
Si       1.78683208       3.09488391       5.05623624      -0.00000514       0.00000977      -0.04618858
Si       3.57366413       0.00000002      12.64850174       0.00119942       0.00019489      -0.08080386
Si       3.57366413       0.00000002       2.52836107       0.00002134       0.00006839       0.22347643
Si       1.78683208       3.09488391      10.12062657       0.00015941       0.00167559      -0.07489366
Si      -0.00388121       3.09701161      15.17643719       0.00193758      -0.00131486       0.00126884
Si       0.00000000       3.09488393       7.58805938      -0.00002674       0.00003600      -0.09353776
C        0.00000000       3.09488393       5.68435955       0.00014167       0.00056333       0.08267819
C        0.00000000       3.09488393      13.27662505      -0.00365174       0.00352293       0.01345818
C        1.78683208       3.09488391       3.15844319       0.00039646       0.00034247       0.08302632
C        3.57366413       0.00000002      10.75070869       0.00143930      -0.00192730       0.03072031
C        3.57366413       0.00000002       0.63055283       0.00169153      -0.00012033      -0.26692345
C        1.78683208       3.09488391       8.22281833       0.00009359      -0.00008536       0.10903714
Si      -0.89341603       1.54744195       5.05623624       0.00001723       0.00005014      -0.04620401
Si      -1.78683208       3.09488395      12.64850174       0.00074331       0.00031059      -0.08125457
Si      -1.78683208       3.09488395       2.52836107      -0.00009205       0.00006068       0.22343272
Si      -0.89341603       1.54744195      10.12062657       0.00046768      -0.00007790      -0.07460236
Si       2.68766303       1.54851587      15.17755553      -0.00161080       0.00180286       0.00023140
Si       2.68024811       1.54744196       7.58805938       0.00020954       0.00013370      -0.09367506
C        2.68024811       1.54744196       5.68435955       0.00058261       0.00050496       0.08277435
C        2.68024811       1.54744196      13.27662505       0.00704791      -0.00005451       0.03933556
C       -0.89341603       1.54744195       3.15844319       0.00002237       0.00051268       0.08316027
C       -1.78683208       3.09488395      10.75070869       0.00049391       0.00216641       0.03046757
C       -1.78683208       3.09488395       0.63055283      -0.00083869       0.00153443      -0.26669513
C       -0.89341603       1.54744195       8.22281833      -0.00041061       0.00041369       0.10903843
C        0.03334659       0.10225423      18.62040675       0.00002545       0.00130381       0.00062632
C        1.37410253       0.87618379      18.62214495      -0.00037332       0.00053505       0.00268860
C       -1.30759941       2.42275743      18.62243425       0.00000694       0.00126524       0.00012907
C        0.03347252       3.19701088      18.62055527       0.00080964       0.00177278       0.00233688
C        2.71380375       0.10313436      18.62230260      -0.00076362      -0.00128375       0.00125521
C        4.05334616       0.87685146      18.62186683      -0.00177715      -0.00136783       0.00007379
C        1.37472977       2.42268384      18.62126317       0.00014398       0.00155963       0.00292180
C        2.71390376       3.19525811      18.61835811      -0.00007893       0.00133672      -0.00181468
Si      -0.89341603       4.64232588       5.05623624       0.00000257       0.00003265      -0.04623075
Si      -1.78683208       6.18976788      12.64850174      -0.00048362      -0.00001851      -0.08053466
Si      -1.78683208       6.18976788       2.52836107       0.00014167      -0.00004242       0.22339415
Si      -0.89341603       4.64232588      10.12062657      -0.00108192      -0.00137040      -0.07449386
Si      -2.67577368       4.64218540      15.17640588      -0.00083047       0.00017689       0.00161954
Si      -2.68024811       4.64232589       7.58805938       0.00004319      -0.00004294      -0.09345600
C       -2.68024811       4.64232589       5.68435955      -0.00018126       0.00022600       0.08262471
C       -2.68024811       4.64232589      13.27662505       0.00407520      -0.00055253       0.01329646
C       -0.89341603       4.64232588       3.15844319       0.00025762       0.00046203       0.08331840
C       -1.78683208       6.18976788      10.75070869      -0.00184451       0.00015067       0.03070437
C       -1.78683208       6.18976788       0.63055283       0.00097985      -0.00040855      -0.26678666
C       -0.89341603       4.64232588       8.22281833       0.00019489       0.00052219       0.10924180
Si      -0.89341603       7.73720981       5.05623624       0.00009487      -0.00001877      -0.04621352
Si       0.89341603       4.64232591      12.64850174       0.00054919      -0.00071554      -0.07410793
Si       0.89341603       4.64232591       2.52836107      -0.00013318       0.00014655       0.22334685
Si      -0.89341603       7.73720981      10.12062657      -0.00133954       0.00139971      -0.07479313
Si      -2.67768680       7.73589583      15.17646040       0.00041395      -0.00014964       0.00130072
Si      -2.68024811       7.73720982       7.58805938       0.00013730      -0.00009899      -0.09336807
C       -2.68024811       7.73720982       5.68435955       0.00081067      -0.00036818       0.08276047
C       -2.68024811       7.73720982      13.27662505       0.00264104      -0.00061706       0.01370269
C       -0.89341603       7.73720981       3.15844319       0.00042218      -0.00020029       0.08321581
C        0.89341603       4.64232591      10.75070869       0.00122770      -0.00102330       0.03229820
C        0.89341603       4.64232591       0.63055283       0.00011930       0.00091531      -0.26691625
C       -0.89341603       7.73720981       8.22281833       0.00051653      -0.00060755       0.10899626
Si      -3.57366413       6.18976784       5.05623624      -0.00002494      -0.00008253      -0.04623203
Si      -4.46708018       7.73720984      12.64850174      -0.00058467       0.00010413      -0.07481756
Si      -4.46708018       7.73720984       2.52836107      -0.00001723      -0.00010542       0.22359367
Si      -3.57366413       6.18976784      10.12062657       0.00188282       0.00027459      -0.07484661
Si      -0.00345294       6.18837071      15.17759794      -0.00021057       0.00053967       0.00018975
Si       0.00000000       6.18976786       7.58805938      -0.00005116       0.00004499      -0.09377636
C        0.00000000       6.18976786       5.68435955       0.00012136       0.00011930       0.08262420
C        0.00000000       6.18976786      13.27662505      -0.00319588      -0.00160668       0.04048768
C       -3.57366413       6.18976784       3.15844319       0.00052682      -0.00039878       0.08300627
C       -4.46708018       7.73720984      10.75070869       0.00164808       0.00152929       0.03183977
C       -4.46708018       7.73720984       0.63055283       0.00098576      -0.00113411      -0.26674218
C       -3.57366413       6.18976784       8.22281833      -0.00028668      -0.00068366       0.10918472
C       -2.64662473       4.74476437      18.62053086      -0.00005528      -0.00129918       0.00253871
C       -1.30638180       5.51865804      18.62218751       0.00078239      -0.00058544       0.00360186
C       -3.98823518       7.06572834      18.62106634       0.00001028      -0.00154652      -0.00001568
C       -2.64684382       7.84003057      18.62090175      -0.00006145      -0.00199595       0.00260684
C        0.03317212       4.74468582      18.62193545       0.00127938       0.00144650       0.00193501
C        1.37274591       5.51841373      18.62040994       0.00152852       0.00224997      -0.00174141
C       -1.30604550       7.06554314      18.62237620       0.00051268      -0.00144110       0.00320565
C        0.03364116       7.83857755      18.62241828       0.00033347      -0.00040495       0.00232016
Si       7.14732829      -0.00000002       5.05623624      -0.00013524       0.00000026      -0.04622149
Si       6.25391224       1.54744198      12.64850174      -0.00178100       0.00063918      -0.07308746
Si       6.25391224       1.54744198       2.52836107       0.00007379       0.00000180       0.22348749
Si       7.14732829      -0.00000002      10.12062657      -0.00008279      -0.00089783      -0.07484893
Si       5.35560850       0.00313585      15.17641915       0.00045226      -0.00040058       0.00149690
Si       5.36049621       0.00000000       7.58805938      -0.00011081       0.00002751      -0.09353005
C        5.36049621       0.00000000       5.68435955      -0.00020055       0.00018718       0.08246762
C        5.36049621       0.00000000      13.27662505      -0.00369313       0.00323650       0.01313397
C        7.14732829      -0.00000002       3.15844319      -0.00039646       0.00014244       0.08330657
C        6.25391224       1.54744198      10.75070869      -0.00158071       0.00037821       0.03234345
C        6.25391224       1.54744198       0.63055283      -0.00077982       0.00051191      -0.26694813
C        7.14732829      -0.00000002       8.22281833      -0.00070088      -0.00002057       0.10934619
Si       7.14732829       3.09488391       5.05623624      -0.00004294       0.00001646      -0.04618961
Si       8.93416034       0.00000002      12.64850174       0.00072351      -0.00104901      -0.08266739
Si       8.93416034       0.00000002       2.52836107      -0.00018820       0.00008228       0.22343195
Si       7.14732829       3.09488391      10.12062657      -0.00019643       0.00093537      -0.07496386
Si       5.35456521       3.09127840      15.17636350       0.00149201       0.00023628       0.00129712
Si       5.36049621       3.09488393       7.58805938      -0.00003265      -0.00010104      -0.09348094
C        5.36049621       3.09488393       5.68435955       0.00018692      -0.00002417       0.08273656
C        5.36049621       3.09488393      13.27662505      -0.00545768      -0.00251788       0.01188441
C        7.14732829       3.09488391       3.15844319      -0.00006531       0.00005785       0.08306129
C        8.93416034       0.00000002      10.75070869       0.00005682      -0.00142105       0.03000066
C        8.93416034       0.00000002       0.63055283      -0.00170181      -0.00006633      -0.26685428
C        7.14732829       3.09488391       8.22281833      -0.00021469      -0.00013318       0.10915027
Si       4.46708018       1.54744195       5.05623624       0.00003574       0.00000077      -0.04621121
Si       3.57366413       3.09488395      12.64850174       0.00071451      -0.00011673      -0.08329346
Si       3.57366413       3.09488395       2.52836107      -0.00001594      -0.00001800       0.22350600
Si       4.46708018       1.54744195      10.12062657       0.00103024       0.00018512      -0.07430128
Si       8.04515305       1.54790125      15.17759889      -0.00214379      -0.00005991      -0.00004859
Si       8.04074432       1.54744196       7.58805938       0.00003677       0.00010799      -0.09356579
C        8.04074432       1.54744196       5.68435955      -0.00055047       0.00055253       0.08272936
C        8.04074432       1.54744196      13.27662505       0.00372553       0.00040109       0.04004750
C        4.46708018       1.54744195       3.15844319       0.00030262       0.00027537       0.08301886
C        3.57366413       3.09488395      10.75070869       0.00082121       0.00202886       0.02972812
C        3.57366413       3.09488395       0.63055283       0.00105364       0.00067980      -0.26691779
C        4.46708018       1.54744195       8.22281833      -0.00000077       0.00007713       0.10897595
C        5.39422227       0.10274519      18.62094322      -0.00142311      -0.00085618       0.00176815
C        6.73466176       0.87627350      18.62214173      -0.00176043       0.00004834       0.00311335
C        4.05303984       2.42305281      18.61946614      -0.00196689      -0.00037230      -0.00117217
C        5.39400203       3.19692678      18.61751089      -0.00242249      -0.00110866      -0.00133080
C        8.07442688       0.10246503      18.62175127       0.00001106       0.00160257       0.00078701
C        9.41366138       0.87590997      18.62225547       0.00014192       0.00175221       0.00050471
C        6.73458784       2.42303535      18.62144528      -0.00245849      -0.00102330       0.00341520
C        8.07432130       3.19608403      18.62196752      -0.00082327      -0.00046666       0.00293440
Si       4.46708018       4.64232588       5.05623624       0.00000926      -0.00001928      -0.04621404
Si       3.57366413       6.18976788      12.64850174      -0.00029131       0.00042577      -0.07799827
Si       3.57366413       6.18976788       2.52836107       0.00001928      -0.00010850       0.22351834
Si       4.46708018       4.64232588      10.12062657      -0.00148533      -0.00156195      -0.07462910
Si       2.68208207       4.64122775      15.17642596       0.00085952      -0.00037744       0.00058338
Si       2.68024811       4.64232589       7.58805938       0.00001440      -0.00004242      -0.09337347
C        2.68024811       4.64232589       5.68435955      -0.00029671       0.00017946       0.08265942
C        2.68024811       4.64232589      13.27662505       0.00161774      -0.00066129       0.01289871
C        4.46708018       4.64232588       3.15844319       0.00018615      -0.00020646       0.08339450
C        3.57366413       6.18976788      10.75070869      -0.00224946      -0.00037564       0.03095531
C        3.57366413       6.18976788       0.63055283      -0.00083098      -0.00152055      -0.26711654
C        4.46708018       4.64232588       8.22281833       0.00029825      -0.00007199       0.10936419
Si       4.46708018       7.73720981       5.05623624       0.00000437      -0.00008279      -0.04620298
Si       6.25391224       4.64232591      12.64850174      -0.00008690      -0.00071502      -0.06667976
Si       6.25391224       4.64232591       2.52836107      -0.00008382       0.00004577       0.22336639
Si       4.46708018       7.73720981      10.12062657      -0.00110197       0.00147093      -0.07443369
Si       2.68531919       7.73660541      15.17634649       0.00211807      -0.00029259       0.00158817
Si       2.68024811       7.73720982       7.58805938       0.00006865      -0.00004988      -0.09342823
C        2.68024811       7.73720982       5.68435955      -0.00032422      -0.00037127       0.08272190
C        2.68024811       7.73720982      13.27662505       0.00281073      -0.00003420       0.01186693
C        4.46708018       7.73720981       3.15844319      -0.00009976      -0.00066026       0.08315668
C        6.25391224       4.64232591      10.75070869       0.00117628      -0.00196407       0.03400258
C        6.25391224       4.64232591       0.63055283       0.00007353      -0.00117319      -0.26708697
C        4.46708018       7.73720981       8.22281833      -0.00006453      -0.00090966       0.10891759
Si       1.78683208       6.18976784       5.05623624      -0.00007919      -0.00002005      -0.04623435
Si       0.89341603       7.73720984      12.64850174       0.00036613       0.00074356      -0.06718215
Si       0.89341603       7.73720984       2.52836107      -0.00009256      -0.00005554       0.22336613
Si       1.78683208       6.18976784      10.12062657       0.00187382      -0.00029028      -0.07489752
Si       5.35927762       6.19357176      15.17750528      -0.00339283      -0.00003214      -0.00013935
Si       5.36049621       6.18976786       7.58805938      -0.00003497       0.00006968      -0.09375528
C        5.36049621       6.18976786       5.68435955       0.00004551      -0.00045843       0.08270648
C        5.36049621       6.18976786      13.27662505       0.00037795       0.00207154       0.03899335
C        1.78683208       6.18976784       3.15844319      -0.00005296      -0.00010799       0.08312145
C        0.89341603       7.73720984      10.75070869       0.00055073       0.00137785       0.03376913
C        0.89341603       7.73720984       0.63055283      -0.00067414      -0.00037872      -0.26668510
C        1.78683208       6.18976784       8.22281833      -0.00076182      -0.00006376       0.10921326
C        2.71330186       4.74415371      18.61415130       0.00126858       0.00198052      -0.00580298
C        4.05421473       5.51907336      18.61138434       0.00135754       0.00098345      -0.00948017
C        1.37290890       7.06541005      18.62116993       0.00121150       0.00176660      -0.00047231
C        2.71406654       7.83955443      18.61770461       0.00133697       0.00244383      -0.00410040
C        5.39430574       4.74489123      18.61628679      -0.00074048      -0.00066052      -0.00479434
C        6.73339467       5.51891092      18.62053073      -0.00035147      -0.00152209      -0.00132952
C        4.05438045       7.06613721      18.61404282       0.00169487       0.00172341      -0.00873532
C        5.39340458       7.83852582      18.61916292       0.00044429       0.00034916      -0.00281099
C        3.94802193       5.27249105      21.77423503      -0.00340543      -0.00399189       0.01959515
O        3.91610916       6.44546758      21.81691077      -0.00137091      -0.00748320       0.01353017
O        3.97947931       4.09969310      21.72122754       0.00390499      -0.00027639       0.01936118
