179
Lattice="10.720992125991367 0.0 0.0 -5.360496062995684 9.284647205911675 0.0 0.0 0.0 34.99999747733031" Properties=species:S:1:pos:R:3:forces:R:3 energy=-73227.26680323036 free_energy=-73227.26680323036 pbc="T T T"
Si       1.78683208      -0.00000002       5.05623624       0.00031727       0.00001311      -0.02529760
Si       0.89341603       1.54744198      12.64850174      -0.00117551       0.00074691      -0.15869903
Si       0.89341603       1.54744198       2.52836107       0.00030030       0.00033527       0.27132775
Si       1.78683208      -0.00000002      10.12062657      -0.00028745      -0.00134803      -0.07288100
Si      -0.00152905      -0.00069350      15.17129046       0.00173524       0.00128092       0.00071554
Si       0.00000000       0.00000000       7.58805938      -0.00004885       0.00000951      -0.09754483
C        0.00000000       0.00000000       5.68435955       0.00000231      -0.00001440       0.08532489
C        0.00000000       0.00000000      13.27662505      -0.00152338      -0.00064869      -0.03726608
C        1.78683208      -0.00000002       3.15844319       0.00191290      -0.00004911       0.08470011
C        0.89341603       1.54744198      10.75070869      -0.00136783       0.00160180       0.03769700
C        0.89341603       1.54744198       0.63055283       0.00275031       0.00471540      -0.19365523
C        1.78683208      -0.00000002       8.22281833       0.00210188       0.00038258       0.10379646
Si       1.78683208       3.09488391       5.05623624       0.00013061       0.00025043      -0.02534671
Si       3.57366413       0.00000002      12.64850174       0.00072299      -0.00067877      -0.16316015
Si       3.57366413       0.00000002       2.52836107       0.00038824       0.00009205       0.27101818
Si       1.78683208       3.09488391      10.12062657      -0.00026020       0.00186971      -0.07280773
Si      -0.00173043       3.09603654      15.17113714       0.00267292      -0.00113746       0.00173369
Si       0.00000000       3.09488393       7.58805938       0.00002494       0.00038155      -0.09756231
C        0.00000000       3.09488393       5.68435955      -0.00001980       0.00219752       0.08533903
C        0.00000000       3.09488393      13.27662505      -0.00149124       0.00389522      -0.03967572
C        1.78683208       3.09488391       3.15844319       0.00097650       0.00177792       0.08453504
C        3.57366413       0.00000002      10.75070869       0.00294340      -0.00199543       0.03684185
C        3.57366413       0.00000002       0.63055283       0.00539880       0.00008253      -0.19391671
C        1.78683208       3.09488391       8.22281833       0.00111020       0.00122102       0.10373090
Si      -0.89341603       1.54744195       5.05623624      -0.00014938       0.00029053      -0.02529271
Si      -1.78683208       3.09488395      12.64850174       0.00032447       0.00119119      -0.16428629
Si      -1.78683208       3.09488395       2.52836107      -0.00027305       0.00028796       0.27105598
Si      -0.89341603       1.54744195      10.12062657       0.00113514       0.00045277      -0.07274525
Si       2.68138690       1.54824378      15.17180373      -0.00042526       0.00016841       0.00364068
Si       2.68024811       1.54744196       7.58805938       0.00035198       0.00024734      -0.09782919
C        2.68024811       1.54744196       5.68435955       0.00190930       0.00108989       0.08523336
C        2.68024811       1.54744196      13.27662505       0.00294597       0.00223197      -0.01746936
C       -0.89341603       1.54744195       3.15844319      -0.00092457       0.00167739       0.08471502
C       -1.78683208       3.09488395      10.75070869       0.00017252       0.00357152       0.03645310
C       -1.78683208       3.09488395       0.63055283      -0.00274542       0.00463313      -0.19388046
C       -0.89341603       1.54744195       8.22281833      -0.00132926       0.00160848       0.10367536
C       -0.00013778       0.00014518      18.60812759       0.00077467       0.00098679      -0.00944186
C        1.34061077       0.77430248      18.60798184       0.00060909       0.00129661      -0.00191367
C       -1.34095629       2.32095357      18.60902229       0.00111586       0.00087906      -0.00280327
C       -0.00006765       3.09484924      18.60598187       0.00116574       0.00153341       0.00510827
C        2.68026163       0.00068070      18.60726133      -0.00053170       0.00055613       0.00655734
C        4.01959628       0.77375481      18.60521174      -0.00028128      -0.00016095       0.01566933
C        1.34042551       2.32060611      18.60646399       0.00112871       0.00218852      -0.00259681
C        2.67948639       3.09409449      18.60255731       0.00074536       0.00082738      -0.00704379
Si      -0.89341603       4.64232588       5.05623624      -0.00001131       0.00019977      -0.02537216
Si      -1.78683208       6.18976788      12.64850174      -0.00045483      -0.00044866      -0.16249809
Si      -1.78683208       6.18976788       2.52836107       0.00030133      -0.00008048       0.27103824
Si      -0.89341603       4.64232588      10.12062657      -0.00086003      -0.00136988      -0.07268020
Si      -2.67834601       4.64170014      15.17112817      -0.00277808       0.00053299       0.00197538
Si      -2.68024811       4.64232589       7.58805938       0.00006453      -0.00007430      -0.09756462
C       -2.68024811       4.64232589       5.68435955      -0.00000771      -0.00000103       0.08539405
C       -2.68024811       4.64232589      13.27662505       0.00163265      -0.00089911      -0.03957262
C       -0.89341603       4.64232588       3.15844319       0.00001388       0.00109066       0.08447822
C       -1.78683208       6.18976788      10.75070869      -0.00135806      -0.00049854       0.03702234
C       -1.78683208       6.18976788       0.63055283       0.00276934      -0.00156117      -0.19412395
C       -0.89341603       4.64232588       8.22281833       0.00028565       0.00158714       0.10368951
Si      -0.89341603       7.73720981       5.05623624       0.00021109      -0.00008562      -0.02537807
Si       0.89341603       4.64232591      12.64850174       0.00068571      -0.00077364      -0.16094643
Si       0.89341603       4.64232591       2.52836107      -0.00008253       0.00029748       0.27099530
Si      -0.89341603       7.73720981      10.12062657      -0.00089552       0.00123979      -0.07280696
Si      -2.67893301       7.73745909      15.17132876      -0.00140434      -0.00074151       0.00027665
Si      -2.68024811       7.73720982       7.58805938       0.00031213      -0.00022034      -0.09755357
C       -2.68024811       7.73720982       5.68435955       0.00190107      -0.00109272       0.08542259
C       -2.68024811       7.73720982      13.27662505       0.00344734      -0.00108603      -0.03656700
C       -0.89341603       7.73720981       3.15844319       0.00093871      -0.00053633       0.08448516
C        0.89341603       4.64232591      10.75070869       0.00138428      -0.00080810       0.03735093
C        0.89341603       4.64232591       0.63055283      -0.00004397       0.00317403      -0.19408949
C       -0.89341603       7.73720981       8.22281833       0.00127732      -0.00094514       0.10377435
Si      -3.57366413       6.18976784       5.05623624       0.00013910      -0.00026688      -0.02535519
Si      -4.46708018       7.73720984      12.64850174       0.00060755       0.00040058      -0.15971847
Si      -4.46708018       7.73720984       2.52836107       0.00013884      -0.00043272       0.27118582
Si      -3.57366413       6.18976784      10.12062657       0.00190107      -0.00045303      -0.07288897
Si      -0.00079219       6.18892177      15.17195860       0.00097728       0.00014990       0.00258730
Si       0.00000000       6.18976786       7.58805938      -0.00002545      -0.00004525      -0.09792766
C        0.00000000       6.18976786       5.68435955       0.00000848       0.00003497       0.08525958
C        0.00000000       6.18976786      13.27662505      -0.00030776      -0.00067671      -0.01571278
C       -3.57366413       6.18976784       3.15844319       0.00104644      -0.00169539       0.08457850
C       -4.46708018       7.73720984      10.75070869       0.00218955       0.00024580       0.03742112
C       -4.46708018       7.73720984       0.63055283       0.00269452      -0.00469329      -0.19364598
C       -3.57366413       6.18976784       8.22281833       0.00045791      -0.00163496       0.10378129
C       -2.68005833       4.64248663      18.60603617      -0.00091943      -0.00102021       0.00533992
C       -1.33909852       5.41636328      18.60893634      -0.00146784       0.00014244      -0.00236747
C       -4.02087679       6.96315121      18.60809032      -0.00137863      -0.00084872      -0.00270686
C       -2.67991879       7.73705533      18.60822279      -0.00209699      -0.00005708      -0.01011678
C        0.00023134       4.64291113      18.60726081      -0.00005502       0.00164962       0.00649306
C        1.33925734       5.41610466      18.60594112       0.00014707       0.00130124       0.00066643
C       -1.33908810       6.96285622      18.61078008      -0.00201446      -0.00022729      -0.01814145
C        0.00030317       7.73609792      18.60985289      -0.00120302       0.00009205      -0.01152677
Si       7.14732829      -0.00000002       5.05623624      -0.00030879      -0.00000720      -0.02534645
Si       6.25391224       1.54744198      12.64850174      -0.00136680       0.00076233      -0.16037307
Si       6.25391224       1.54744198       2.52836107      -0.00006068       0.00012778       0.27105007
Si       7.14732829      -0.00000002      10.12062657      -0.00098165      -0.00117602      -0.07291674
Si       5.35891287       0.00051104      15.17114473       0.00194478       0.00002777       0.00214661
Si       5.36049621       0.00000000       7.58805938      -0.00008202       0.00005296      -0.09762324
C        5.36049621       0.00000000       5.68435955       0.00001183       0.00001697       0.08536937
C        5.36049621       0.00000000      13.27662505      -0.00145036       0.00072454      -0.03849507
C        7.14732829      -0.00000002       3.15844319      -0.00200469      -0.00005528       0.08454327
C        6.25391224       1.54744198      10.75070869      -0.00332829       0.00050111       0.03752011
C        6.25391224       1.54744198       0.63055283      -0.00265724       0.00157531      -0.19410518
C        7.14732829      -0.00000002       8.22281833      -0.00173627       0.00035456       0.10376638
Si       7.14732829       3.09488391       5.05623624      -0.00018666       0.00012444      -0.02536779
Si       8.93416034       0.00000002      12.64850174       0.00015684      -0.00038129      -0.16281254
Si       8.93416034       0.00000002       2.52836107      -0.00043709       0.00008922       0.27124701
Si       7.14732829       3.09488391      10.12062657      -0.00070577       0.00142542      -0.07281236
Si       5.35864297       3.09501665      15.17107996       0.00243689       0.00000566       0.00094694
Si       5.36049621       3.09488393       7.58805938      -0.00001543      -0.00000900      -0.09759239
C        5.36049621       3.09488393       5.68435955      -0.00000386      -0.00000206       0.08531126
C        5.36049621       3.09488393      13.27662505      -0.00208619       0.00022549      -0.04071008
C        7.14732829       3.09488391       3.15844319      -0.00099425       0.00056590       0.08446717
C        8.93416034       0.00000002      10.75070869      -0.00105878      -0.00200880       0.03672821
C        8.93416034       0.00000002       0.63055283      -0.00541192       0.00003368      -0.19362515
C        7.14732829       3.09488391       8.22281833      -0.00080527       0.00015221       0.10374556
Si       4.46708018       1.54744195       5.05623624       0.00020492       0.00009076      -0.02537447
Si       3.57366413       3.09488395      12.64850174       0.00097188       0.00155937      -0.16483137
Si       3.57366413       3.09488395       2.52836107       0.00014295      -0.00000437       0.27104210
Si       4.46708018       1.54744195      10.12062657       0.00154678       0.00036484      -0.07274062
Si       8.04124355       1.54793059      15.17201746      -0.00067954       0.00022703       0.00214379
Si       8.04074432       1.54744196       7.58805938      -0.00030982       0.00018435      -0.09782250
C        8.04074432       1.54744196       5.68435955      -0.00187948       0.00107781       0.08525110
C        8.04074432       1.54744196      13.27662505      -0.00205945       0.00175632      -0.01524998
C        4.46708018       1.54744195       3.15844319       0.00102870       0.00057747       0.08447797
C        3.57366413       3.09488395      10.75070869       0.00210033       0.00246337       0.03647033
C        3.57366413       3.09488395       0.63055283       0.00267472       0.00149792      -0.19415377
C        4.46708018       1.54744195       8.22281833       0.00056539       0.00049879       0.10371265
C        5.36065925      -0.00004829      18.60605517      -0.00049802      -0.00080861       0.00485141
C        6.70130066       0.77457676      18.60819291       0.00072968      -0.00115571      -0.00326941
C        4.01942566       2.32110901      18.60268502       0.00066154      -0.00076645       0.00264644
C        5.36099820       3.09524322      18.60057272       0.00082867      -0.00199338      -0.00412996
C        8.04074713       0.00105225      18.60994693       0.00064715      -0.00022471      -0.01195332
C        9.37995751       0.77421425      18.61082383       0.00156657       0.00069060      -0.01822604
C        6.70135959       2.32114984      18.60610680       0.00055150      -0.00169590       0.00054430
C        8.04078557       3.09437257      18.60739116       0.00043143      -0.00107164       0.00624984
Si       4.46708018       4.64232588       5.05623624      -0.00000463      -0.00021494      -0.02537319
Si       3.57366413       6.18976788      12.64850174      -0.00106932      -0.00111432      -0.16344220
Si       3.57366413       6.18976788       2.52836107      -0.00010516      -0.00038181       0.27101767
Si       4.46708018       4.64232588      10.12062657      -0.00099579      -0.00172624      -0.07265295
Si       2.68175244       4.64188329      15.17111410      -0.00192936       0.00028514       0.00045997
Si       2.68024811       4.64232589       7.58805938       0.00006068       0.00001723      -0.09753634
C        2.68024811       4.64232589       5.68435955      -0.00001080      -0.00000077       0.08535857
C        2.68024811       4.64232589      13.27662505       0.00165219      -0.00057541      -0.04047251
C        4.46708018       4.64232588       3.15844319      -0.00001543      -0.00115391       0.08447617
C        3.57366413       6.18976788      10.75070869      -0.00336866      -0.00151361       0.03675906
C        3.57366413       6.18976788       0.63055283      -0.00261533      -0.00467658      -0.19395117
C        4.46708018       4.64232588       8.22281833       0.00030236      -0.00066926       0.10376304
Si       4.46708018       7.73720981       5.05623624      -0.00015632      -0.00028514      -0.02530043
Si       6.25391224       4.64232591      12.64850174       0.00038567      -0.00166993      -0.16004269
Si       6.25391224       4.64232591       2.52836107      -0.00007945      -0.00011184       0.27104364
Si       4.46708018       7.73720981      10.12062657      -0.00117731       0.00103873      -0.07274628
Si       2.68191950       7.73702782      15.17112669      -0.00190853      -0.00033784       0.00241452
Si       2.68024811       7.73720982       7.58805938      -0.00031162      -0.00015941      -0.09755768
C        2.68024811       7.73720982       5.68435955      -0.00188333      -0.00111097       0.08535908
C        2.68024811       7.73720982      13.27662505      -0.00096673      -0.00162545      -0.03889873
C        4.46708018       7.73720981       3.15844319      -0.00100762      -0.00161671       0.08471836
C        6.25391224       4.64232591      10.75070869       0.00143828      -0.00311206       0.03762578
C        6.25391224       4.64232591       0.63055283      -0.00005554      -0.00307195      -0.19406661
C        4.46708018       7.73720981       8.22281833      -0.00066489      -0.00203400       0.10370365
Si       1.78683208       6.18976784       5.05623624      -0.00017612      -0.00011390      -0.02537216
Si       0.89341603       7.73720984      12.64850174       0.00007148       0.00034119      -0.15897439
Si       0.89341603       7.73720984       2.52836107      -0.00022214      -0.00022600       0.27111794
Si       1.78683208       6.18976784      10.12062657       0.00161748      -0.00031599      -0.07285401
Si       5.35938359       6.18917856      15.17180334       0.00054533      -0.00034710       0.00355712
Si       5.36049621       6.18976786       7.58805938      -0.00000848      -0.00038541      -0.09786878
C        5.36049621       6.18976786       5.68435955      -0.00001620      -0.00219675       0.08521330
C        5.36049621       6.18976786      13.27662505      -0.00063326      -0.00336866      -0.01751333
C        1.78683208       6.18976784       3.15844319      -0.00094154      -0.00053556       0.08445303
C        0.89341603       7.73720984      10.75070869       0.00013935       0.00157634       0.03793406
C        0.89341603       7.73720984       0.63055283      -0.00273565      -0.00162442      -0.19411906
C        1.78683208       6.18976784       8.22281833      -0.00150615      -0.00046794       0.10376972
C        2.67943602       4.64231065      18.60053662       0.00019155       0.00117242      -0.00470023
C        4.02087250       5.41655418      18.60269643       0.00029439      -0.00007945       0.00233533
C        1.33942232       6.96277874      18.60802878      -0.00061912       0.00058261      -0.00257959
C        2.68006739       7.73727929      18.60598349       0.00062941       0.00024194       0.00505530
C        5.36106534       4.64351008      18.60261451       0.00015324      -0.00161337      -0.00686793
C        6.70019964       5.41665729      18.60657967      -0.00108655      -0.00166967      -0.00286807
C        4.02098926       6.96350816      18.60516266      -0.00009230      -0.00044377       0.01576909
C        5.36061876       7.73660277      18.60724833      -0.00008562      -0.00013113       0.00686176
C        4.02022158       3.86808771      21.93865834       0.01333066      -0.00080964       0.00466784
O        5.19079678       3.77681303      21.93268903      -0.00022497      -0.00033733       0.01198288
O        2.84980728       3.95945258      21.93248715      -0.01343427       0.00077596       0.01193455
