48
Lattice="8.315575849598094 0.0 0.0 4.157787924799047 7.20149657514819 0.0 0.0 0.0 19.999999365264614" Properties=species:S:1:pos:R:3:forces:R:3 energy=-281861.5265673036 free_energy=-281861.5265673036 pbc="T T T"
Pt       3.00284680       1.20024997       5.74156598      -0.00345531      -0.11809617      -0.70615400
Pt       5.77470538       1.20024997       5.74156598      -0.00317120      -0.11611128      -0.70645996
Pt       8.54656396       1.20024997       5.74156598      -0.00495786      -0.11222480      -0.71114734
Pt       4.38877609       3.60074992       5.74156598      -0.00388879      -0.11639641      -0.70412103
Pt       7.16063467       3.60074992       5.74156598      -0.00352653      -0.11511497      -0.70481111
Pt       9.93249325       3.60074992       5.74156598      -0.00454597      -0.11452233      -0.70461751
Pt       5.77470538       6.00124987       5.74156598      -0.00281484      -0.11617195      -0.70468024
Pt       8.54656396       6.00124987       5.74156598      -0.00374018      -0.11404617      -0.70782804
Pt      11.31842254       6.00124987       5.74156598      -0.00409988      -0.11407239      -0.70530450
Pt       1.61691751       2.00041662       8.00477904       0.00473443       0.11566956       0.71234187
Pt       4.38877609       2.00041662       8.00477904       0.00452797       0.11410402       0.70583724
Pt       7.16063467       2.00041662       8.00477904       0.00689621       0.11581123       0.70953243
Pt       3.00284680       4.40091657       8.00477904       0.00462079       0.11783314       0.70864514
Pt       5.77470538       4.40091657       8.00477904       0.00445238       0.11905108       0.70073128
Pt       8.54656396       4.40091657       8.00477904       0.00831418       0.11772027       0.70904649
Pt       4.38877609       6.80141652       8.00477904       0.00406260       0.11562457       0.71647158
Pt       7.16063467       6.80141652       8.00477904       0.00475808       0.11644269       0.70570174
Pt       9.93249325       6.80141652       8.00477904       0.00677306       0.11534072       0.71297462
Pt       1.63401473       0.84977337      10.42438929      -0.00246569       0.00104258      -0.00090143
Pt       4.40582763       0.85051455      10.42377520      -0.00073919       0.00028822       0.00148815
Pt       7.17817766       0.85011838      10.42405393      -0.00143699      -0.00020595      -0.00404229
Pt       3.01944355       3.25022394      10.42363709      -0.00168562       0.00053608       0.00111792
Pt       5.79238342       3.25111084      10.42264441      -0.00145473       0.00080090      -0.00189670
Pt       8.56412989       3.25056631      10.42407066      -0.00180157      -0.00082610       0.00010722
Pt       4.40555816       5.65016351      10.42428884      -0.00253974       0.00206691      -0.00268372
Pt       7.17844157       5.65219183      10.42380065      -0.00127707      -0.00034710       0.00017381
Pt       9.94928249       5.65156790      10.42445367      -0.00068134      -0.00017201      -0.00077673
C        1.63449015       1.56133096      12.52371789       0.00031650      -0.00041678       0.00049622
C        3.02063766       2.38903936      12.54715541      -0.00009822      -0.00145884      -0.00236799
C        3.02013492       3.96137529      12.52122479      -0.00026842      -0.00060241       0.00062555
C        4.40572334       4.79041470      12.53831597      -0.00010104       0.00044891      -0.00229985
C        4.40629284       6.36218717      12.52364049      -0.00046383       0.00100170       0.00160977
C        5.79248618       7.18959638      12.54780487      -0.00033784       0.00029079      -0.00300331
C        4.40616899       1.56075999      12.52315792       0.00005374      -0.00178872       0.00104875
C        5.79248082       2.38651240      12.54365004       0.00017535      -0.00093717      -0.00243381
C        5.79276731       3.96219878      12.51374712      -0.00014115      -0.00096082       0.00332649
C        7.17942957       4.78865628      12.54666447      -0.00009950      -0.00128967      -0.00415696
C        7.17864636       6.36243647      12.52419779      -0.00028668      -0.00101944      -0.00030416
C        8.56451111       7.18880299      12.54908080      -0.00037744      -0.00190647      -0.00475988
C        7.17906413       1.55965343      12.52032459      -0.00069163      -0.00014013       0.00213093
C        8.56474042       2.38824066      12.54523850      -0.00023448       0.00006633      -0.00521883
C        8.56467333       3.96026535      12.52274987       0.00009976      -0.00043169       0.00312158
C        9.95060478       4.78818534      12.54733334      -0.00042835      -0.00127990      -0.00250194
C        9.95034424       6.36138171      12.52444441      -0.00042269      -0.00102716      -0.00113386
C       11.33655877       7.18883004      12.54813641      -0.00042860       0.00092868      -0.00288555
C        5.91608768       3.41306602      15.66377873       0.00877132      -0.00372450       0.00202860
O        6.98898564       2.93813286      15.65729208      -0.00462156       0.00780330      -0.00367334
O        4.84355998       3.88869293      15.66410269      -0.00127192      -0.00758090       0.00160591
