179
Lattice="10.720992125991367 0.0 0.0 -5.360496062995684 9.284647205911675 0.0 0.0 0.0 34.99999747733031" Properties=species:S:1:pos:R:3:forces:R:3 energy=-74050.63873954529 free_energy=-74050.63873954529 pbc="T T T"
Si       1.78683208      -0.00000002       5.05623624      -0.00021494      -0.00031213      -0.05644471
Si       0.89341603       1.54744198      12.64850174       0.00004859       0.00067800      -0.05726412
Si       0.89341603       1.54744198       2.52836107       0.00023089       0.00005142       0.15790867
Si       1.78683208      -0.00000002      10.12062657      -0.00070294      -0.00106829      -0.07825564
Si       0.00040800      -0.00029697      15.18009088      -0.00053916       0.00033990       0.00115905
Si       0.00000000       0.00000000       7.58805938       0.00001671      -0.00008896      -0.09044498
C        0.00000000       0.00000000       5.68435955      -0.00070037       0.00020723       0.08177059
C        0.00000000       0.00000000      13.27662505       0.00120250      -0.00063840       0.04694089
C        1.78683208      -0.00000002       3.15844319       0.00029079      -0.00016789       0.08447025
C        0.89341603       1.54744198      10.75070869      -0.00415465      -0.00057978       0.02284528
C        0.89341603       1.54744198       0.63055283       0.00167507      -0.00015092      -0.23696341
C        1.78683208      -0.00000002       8.22281833       0.00019952      -0.00026868       0.11444597
Si       1.78683208       3.09488391       5.05623624      -0.00027408       0.00034427      -0.05643546
Si       3.57366413       0.00000002      12.64850174       0.00047283       0.00043169      -0.05689388
Si       3.57366413       0.00000002       2.52836107      -0.00011313       0.00026405       0.15796086
Si       1.78683208       3.09488391      10.12062657       0.00008716       0.00129712      -0.07790880
Si       0.00234363       3.09459027      15.18010433      -0.00186122       0.00025865       0.00097753
Si       0.00000000       3.09488393       7.58805938       0.00012881       0.00004037      -0.09042158
C        0.00000000       3.09488393       5.68435955      -0.00020749       0.00060061       0.08102986
C        0.00000000       3.09488393      13.27662505       0.00389651      -0.00043117       0.04710415
C        1.78683208       3.09488391       3.15844319      -0.00070165       0.00080887       0.08319576
C        3.57366413       0.00000002      10.75070869       0.00198489      -0.00422304       0.02279771
C        3.57366413       0.00000002       0.63055283      -0.00067157       0.00118091      -0.23705571
C        1.78683208       3.09488391       8.22281833      -0.00012676       0.00045817       0.11461155
Si      -0.89341603       1.54744195       5.05623624       0.00043015       0.00000848      -0.05637684
Si      -1.78683208       3.09488395      12.64850174       0.00031213       0.00126833      -0.05367101
Si      -1.78683208       3.09488395       2.52836107      -0.00016198      -0.00022780       0.15788707
Si      -0.89341603       1.54744195      10.12062657       0.00175683      -0.00005399      -0.07826155
Si       2.68164662       1.55014165      15.18070553      -0.00050754      -0.00107009       0.00327096
Si       2.68024811       1.54744196       7.58805938      -0.00002031       0.00003240      -0.09064578
C        2.68024811       1.54744196       5.68435955       0.00061629       0.00075385       0.08062568
C        2.68024811       1.54744196      13.27662505       0.00193938       0.00334603       0.05768733
C       -0.89341603       1.54744195       3.15844319      -0.00032036       0.00000591       0.08447179
C       -1.78683208       3.09488395      10.75070869       0.00226360       0.00415105       0.02384827
C       -1.78683208       3.09488395       0.63055283      -0.00093331      -0.00026791      -0.23660448
C       -0.89341603       1.54744195       8.22281833      -0.00078084       0.00025531       0.11371192
C        0.00000532      -0.00045058      18.66921352      -0.00016481      -0.00012033       0.00546462
C        1.34086675       0.77392654      18.67114189      -0.00043400      -0.00071502       0.00535201
C       -1.34088963       2.32038971      18.67134901       0.00017561       0.00051268       0.00592948
C        0.00005116       3.09456906      18.66977810       0.00014398       0.00008845       0.00411145
C        2.68020443       0.00062974      18.67116242      -0.00023808      -0.00074562       0.00525713
C        4.01961738       0.77448629      18.67120248      -0.00025223      -0.00040983       0.00285470
C        1.34135664       2.32082083      18.67122086      -0.00032987      -0.00072017       0.00267009
C        2.68065938       3.09407106      18.67044481      -0.00063223      -0.00097162      -0.00209879
Si      -0.89341603       4.64232588       5.05623624      -0.00024940      -0.00034247      -0.05638481
Si      -1.78683208       6.18976788      12.64850174      -0.00180929      -0.00014372      -0.05481463
Si      -1.78683208       6.18976788       2.52836107       0.00017921       0.00000206       0.15787370
Si      -0.89341603       4.64232588      10.12062657      -0.00039492      -0.00119865      -0.07824073
Si      -2.68231152       4.64267946      15.18013457       0.00175555      -0.00017766       0.00094051
Si      -2.68024811       4.64232589       7.58805938       0.00000489      -0.00005682      -0.09038070
C       -2.68024811       4.64232589       5.68435955       0.00029233      -0.00033630       0.08122989
C       -2.68024811       4.64232589      13.27662505      -0.00348693       0.00060447       0.04703473
C       -0.89341603       4.64232588       3.15844319       0.00010490       0.00035404       0.08347575
C       -1.78683208       6.18976788      10.75070869      -0.00343988      -0.00001080       0.02389738
C       -1.78683208       6.18976788       0.63055283       0.00111072       0.00022857      -0.23712359
C       -0.89341603       4.64232588       8.22281833       0.00006068       0.00056230       0.11438529
Si      -0.89341603       7.73720981       5.05623624      -0.00021417       0.00040058      -0.05639818
Si       0.89341603       4.64232591      12.64850174       0.00257779      -0.00180054      -0.05725307
Si       0.89341603       4.64232591       2.52836107      -0.00027048       0.00027871       0.15802900
Si      -0.89341603       7.73720981      10.12062657      -0.00088035       0.00151284      -0.07827929
Si      -2.68087891       7.73750877      15.18011179       0.00068494      -0.00038078       0.00106212
Si      -2.68024811       7.73720982       7.58805938      -0.00014475       0.00001260      -0.09045372
C       -2.68024811       7.73720982       5.68435955       0.00095259      -0.00076387       0.08174488
C       -2.68024811       7.73720982      13.27662505      -0.00100170       0.00068648       0.04730727
C       -0.89341603       7.73720981       3.15844319      -0.00009616      -0.00046897       0.08435455
C        0.89341603       4.64232591      10.75070869       0.00169950      -0.00283156       0.02279643
C        0.89341603       4.64232591       0.63055283      -0.00118168       0.00079653      -0.23604373
C       -0.89341603       7.73720981       8.22281833       0.00042115      -0.00067080       0.11378083
Si      -3.57366413       6.18976784       5.05623624       0.00042295       0.00003934      -0.05649716
Si      -4.46708018       7.73720984      12.64850174       0.00018718       0.00049237      -0.05634213
Si      -4.46708018       7.73720984       2.52836107      -0.00021469      -0.00029773       0.15804005
Si      -3.57366413       6.18976784      10.12062657       0.00092997      -0.00037075      -0.07813737
Si       0.00089599       6.18900883      15.18100797      -0.00088215       0.00059110       0.00327301
Si       0.00000000       6.18976786       7.58805938       0.00008150       0.00003728      -0.09087796
C        0.00000000       6.18976786       5.68435955      -0.00038387       0.00004937       0.08144406
C        0.00000000       6.18976786      13.27662505       0.00155423      -0.00093614       0.06504325
C       -3.57366413       6.18976784       3.15844319       0.00090117      -0.00030879       0.08362693
C       -4.46708018       7.73720984      10.75070869       0.00206434       0.00303005       0.02354848
C       -4.46708018       7.73720984       0.63055283      -0.00060678      -0.00114260      -0.23640239
C       -3.57366413       6.18976784       8.22281833       0.00004217       0.00013421       0.11468894
C       -2.68065871       4.64163887      18.67000154       0.00039158       0.00066026       0.00323985
C       -1.33979708       5.41587471      18.67156085       0.00075230       0.00040392       0.00440379
C       -4.02137026       6.96271217      18.67136645       0.00009744      -0.00010516       0.00405463
C       -2.68046044       7.73686109      18.66924626       0.00023834      -0.00015838       0.00542966
C        0.00004037       4.64238993      18.67185219       0.00050419       0.00017226       0.00288066
C        1.33998456       5.41542532      18.67183742       0.00046306       0.00004294       0.00056204
C       -1.33980204       6.96259966      18.67110087       0.00065049       0.00017458       0.00571016
C       -0.00008601       7.73600585      18.67136877       0.00057696       0.00050239       0.00564614
Si       7.14732829      -0.00000002       5.05623624      -0.00013498      -0.00036767      -0.05637658
Si       6.25391224       1.54744198      12.64850174      -0.00279530       0.00129506      -0.05698773
Si       6.25391224       1.54744198       2.52836107       0.00038232      -0.00008022       0.15796575
Si       7.14732829      -0.00000002      10.12062657      -0.00076002      -0.00094539      -0.07821090
Si       5.35925794       0.00179323      15.18011958       0.00102073      -0.00137425       0.00094102
Si       5.36049621       0.00000000       7.58805938       0.00000540       0.00014090      -0.09040513
C        5.36049621       0.00000000       5.68435955       0.00032859      -0.00014810       0.08122038
C        5.36049621       0.00000000      13.27662505      -0.00229857       0.00287141       0.04737669
C        7.14732829      -0.00000002       3.15844319      -0.00031547       0.00006633       0.08343795
C        6.25391224       1.54744198      10.75070869      -0.00371679       0.00011853       0.02274552
C        6.25391224       1.54744198       0.63055283       0.00101764      -0.00028616      -0.23587043
C        7.14732829      -0.00000002       8.22281833      -0.00010310       0.00017124       0.11428914
Si       7.14732829       3.09488391       5.05623624      -0.00019309       0.00035430      -0.05637941
Si       8.93416034       0.00000002      12.64850174       0.00081093      -0.00160077      -0.05516893
Si       8.93416034       0.00000002       2.52836107      -0.00009462       0.00016506       0.15792667
Si       7.14732829       3.09488391      10.12062657      -0.00129866       0.00153212      -0.07810986
Si       5.35787235       3.09599230      15.17991555       0.00089886      -0.00033913       0.00048645
Si       5.36049621       3.09488393       7.58805938      -0.00002545       0.00003934      -0.09017502
C        5.36049621       3.09488393       5.68435955      -0.00012753      -0.00004422       0.07990629
C        5.36049621       3.09488393      13.27662505      -0.00309484       0.00114003       0.04063783
C        7.14732829       3.09488391       3.15844319      -0.00031059      -0.00027999       0.08379354
C        8.93416034       0.00000002      10.75070869       0.00145293      -0.00299559       0.02376882
C        8.93416034       0.00000002       0.63055283      -0.00036458       0.00124801      -0.23669164
C        7.14732829       3.09488391       8.22281833       0.00015632      -0.00016944       0.11423746
Si       4.46708018       1.54744195       5.05623624       0.00044480      -0.00004114      -0.05643186
Si       3.57366413       3.09488395      12.64850174       0.00104670       0.00199106      -0.06444419
Si       3.57366413       3.09488395       2.52836107      -0.00017612      -0.00027434       0.15802771
Si       4.46708018       1.54744195      10.12062657       0.00104155       0.00078084      -0.07793939
Si       8.03983997       1.54775391      15.18100600       0.00076156      -0.00040443       0.00323676
Si       8.04074432       1.54744196       7.58805938       0.00000797       0.00007199      -0.09084659
C        8.04074432       1.54744196       5.68435955      -0.00007868      -0.00013730       0.08131242
C        8.04074432       1.54744196      13.27662505      -0.00163368       0.00095079       0.06484116
C        4.46708018       1.54744195       3.15844319       0.00099065      -0.00063455       0.08308906
C        3.57366413       3.09488395      10.75070869       0.00174089       0.00285675       0.02079328
C        3.57366413       3.09488395       0.63055283      -0.00041395      -0.00118862      -0.23685414
C        4.46708018       1.54744195       8.22281833       0.00031650      -0.00005194       0.11451025
C        5.36037039      -0.00027235      18.66975176       0.00010979       0.00029413       0.00452103
C        6.70084267       0.77363474      18.67185692       0.00007173       0.00087623       0.00268295
C        4.01958668       2.32100685      18.67041952      -0.00036073      -0.00105004      -0.00181880
C        5.35989532       3.09465932      18.66884552      -0.00013884       0.00000591      -0.00141231
C        8.04064938       0.00006360      18.67156299      -0.00004525       0.00085386       0.00417161
C        9.38013954       0.77345688      18.67109535      -0.00024348       0.00052219       0.00577907
C        6.70032651       2.32059218      18.67178924      -0.00004139       0.00065075       0.00095182
C        8.04046063       3.09371306      18.67182465       0.00008330       0.00093614       0.00327430
Si       4.46708018       4.64232588       5.05623624      -0.00018846      -0.00031496      -0.05643186
Si       3.57366413       6.18976788      12.64850174      -0.00084281      -0.00171775      -0.06018593
Si       3.57366413       6.18976788       2.52836107       0.00032936       0.00001286       0.15789839
Si       4.46708018       4.64232588      10.12062657      -0.00098550      -0.00162545      -0.07771776
Si       2.68242788       4.64065282      15.17990697      -0.00068854       0.00056564       0.00046177
Si       2.68024811       4.64232589       7.58805938       0.00004217       0.00001568      -0.09016807
C        2.68024811       4.64232589       5.68435955      -0.00004217       0.00002571       0.07970703
C        2.68024811       4.64232589      13.27662505       0.00239035      -0.00212090       0.04035655
C        4.46708018       4.64232588       3.15844319      -0.00001054      -0.00016969       0.08409590
C        3.57366413       6.18976788      10.75070869      -0.00436830       0.00014912       0.02234417
C        3.57366413       6.18976788       0.63055283       0.00152981       0.00012701      -0.23613474
C        4.46708018       4.64232588       8.22281833       0.00003162      -0.00019206       0.11448094
Si       4.46708018       7.73720981       5.05623624      -0.00019592       0.00040109      -0.05649716
Si       6.25391224       4.64232591      12.64850174      -0.00113360      -0.00160437      -0.05997510
Si       6.25391224       4.64232591       2.52836107      -0.00018666       0.00029413       0.15802797
Si       4.46708018       7.73720981      10.12062657      -0.00084358       0.00068700      -0.07814457
Si       2.68170284       7.73560354      15.18011764      -0.00114877       0.00144676       0.00101533
Si       2.68024811       7.73720982       7.58805938      -0.00002494      -0.00000334      -0.09037659
C        2.68024811       7.73720982       5.68435955      -0.00076002      -0.00014115       0.08104271
C        2.68024811       7.73720982      13.27662505       0.00208516      -0.00313366       0.04684319
C        4.46708018       7.73720981       3.15844319      -0.00036047       0.00037435       0.08343204
C        6.25391224       4.64232591      10.75070869       0.00253794      -0.00358900       0.02229609
C        6.25391224       4.64232591       0.63055283      -0.00050599       0.00140536      -0.23661708
C        4.46708018       7.73720981       8.22281833       0.00020132      -0.00014552       0.11470437
Si       1.78683208       6.18976784       5.05623624       0.00040263       0.00000180      -0.05638224
Si       0.89341603       7.73720984      12.64850174       0.00108115       0.00088909      -0.05369183
Si       0.89341603       7.73720984       2.52836107      -0.00008073      -0.00023191       0.15788322
Si       1.78683208       6.18976784      10.12062657       0.00203631      -0.00038027      -0.07810909
Si       5.35920527       6.18769595      15.18072696       0.00059932       0.00087469       0.00323779
Si       5.36049621       6.18976786       7.58805938      -0.00007610      -0.00009230      -0.09062573
C        5.36049621       6.18976786       5.68435955      -0.00005914      -0.00052965       0.08031895
C        5.36049621       6.18976786      13.27662505      -0.00162314      -0.00304959       0.05900450
C        1.78683208       6.18976784       3.15844319      -0.00061758      -0.00027948       0.08386990
C        0.89341603       7.73720984      10.75070869       0.00176506       0.00387620       0.02385495
C        0.89341603       7.73720984       0.63055283       0.00006813      -0.00102407      -0.23676235
C        1.78683208       6.18976784       8.22281833      -0.00059315       0.00001594       0.11427577
C        2.68052780       4.64163345      18.66887087      -0.00032627      -0.00040906      -0.00182368
C        4.02079362       5.41553528      18.67048248      -0.00022703      -0.00015684       0.00040572
C        1.33946938       6.96253440      18.67185021       0.00053916       0.00062169       0.00317840
C        2.68006365       7.73639604      18.66999934       0.00006351       0.00038232       0.00306835
C        5.35997739       4.64235070      18.67048467       0.00004371      -0.00011210       0.00032396
C        6.69906581       5.41544099      18.67147961      -0.00014861       0.00003265       0.00255953
C        4.02081426       6.96174172      18.67145752       0.00000591       0.00008870       0.00246003
C        5.36050406       7.73585858      18.67132820      -0.00034658      -0.00024785       0.00455934
C        4.03056962       3.88728532      22.86344656      -0.00013293      -0.00136783      -0.00611357
O        4.05754870       3.93225467      24.03171491       0.00030493       0.00060549      -0.01043585
O        4.00381211       3.84263713      21.68837188      -0.00073534      -0.00119351      -0.00180414
