179
Lattice="10.720992125991367 0.0 0.0 -5.360496062995684 9.284647205911675 0.0 0.0 0.0 34.99999747733031" Properties=species:S:1:pos:R:3:forces:R:3 energy=-74050.71855311925 free_energy=-74050.71855311925 pbc="T T T"
Si       1.78683208      -0.00000002       5.05623624      -0.00002545       0.00039518      -0.05661004
Si       0.89341603       1.54744198      12.64850174       0.00013575       0.00023526      -0.06404001
Si       0.89341603       1.54744198       2.52836107       0.00017792      -0.00028025       0.15886692
Si       1.78683208      -0.00000002      10.12062657      -0.00144367      -0.00008228      -0.07860891
Si       0.00122093      -0.00597979      15.18018401      -0.00308944       0.00733561       0.00978125
Si       0.00000000       0.00000000       7.58805938       0.00001877      -0.00029362      -0.09090881
C        0.00000000       0.00000000       5.68435955      -0.00053119      -0.00147556       0.08193977
C        0.00000000       0.00000000      13.27662505       0.00330644      -0.00905543       0.04485958
C        1.78683208      -0.00000002       3.15844319       0.00207308      -0.00029491       0.08380974
C        0.89341603       1.54744198      10.75070869      -0.00115854      -0.00099939       0.02139184
C        0.89341603       1.54744198       0.63055283      -0.00265981      -0.00056461      -0.23822248
C        1.78683208      -0.00000002       8.22281833       0.00039621       0.00008330       0.11860962
Si       1.78683208       3.09488391       5.05623624      -0.00008793      -0.00021520      -0.05689877
Si       3.57366413       0.00000002      12.64850174       0.00008253       0.00016558      -0.04874452
Si       3.57366413       0.00000002       2.52836107      -0.00008022      -0.00000077       0.15855813
Si       1.78683208       3.09488391      10.12062657       0.00044197       0.00097676      -0.07816411
Si       0.00805643       3.08889116      15.18034172      -0.00733176       0.00821442       0.00967969
Si       0.00000000       3.09488393       7.58805938       0.00023474      -0.00021906      -0.09098440
C        0.00000000       3.09488393       5.68435955      -0.00004037      -0.00029902       0.08286871
C        0.00000000       3.09488393      13.27662505       0.01047750      -0.00994631       0.04988531
C        1.78683208       3.09488391       3.15844319       0.00151438      -0.00016764       0.08357139
C        3.57366413       0.00000002      10.75070869       0.00153443      -0.00106212       0.02403801
C        3.57366413       0.00000002       0.63055283      -0.00091454      -0.00371062      -0.23816000
C        1.78683208       3.09488391       8.22281833      -0.00204171      -0.00110866       0.11699908
Si      -0.89341603       1.54744195       5.05623624       0.00007508      -0.00001697      -0.05687974
Si      -1.78683208       3.09488395      12.64850174      -0.00115751      -0.00119736      -0.04404840
Si      -1.78683208       3.09488395       2.52836107       0.00025274      -0.00003291       0.15812053
Si      -0.89341603       1.54744195      10.12062657       0.00248086      -0.00100170      -0.07894829
Si       2.67628487       1.55442205      15.18056951       0.00697283      -0.00283696       0.01248065
Si       2.68024811       1.54744196       7.58805938       0.00005554       0.00001260      -0.09091549
C        2.68024811       1.54744196       5.68435955       0.00036947       0.00115777       0.07999653
C        2.68024811       1.54744196      13.27662505      -0.00464084       0.00622053       0.05903201
C       -0.89341603       1.54744195       3.15844319       0.00026354       0.00055433       0.08364056
C       -1.78683208       3.09488395      10.75070869       0.00251840       0.00001928       0.02527831
C       -1.78683208       3.09488395       0.63055283      -0.00189979       0.00027999      -0.24116999
C       -0.89341603       1.54744195       8.22281833      -0.00299174       0.00061681       0.11822601
C        0.03309560       0.11091066      18.69716893      -0.00293440      -0.00549573      -0.01262232
C        1.37347609       0.88441087      18.69580436      -0.00025582      -0.00278168      -0.00307838
C       -1.30863582       2.43091926      18.69854273       0.00437242       0.00008279      -0.01113828
C        0.03234807       3.20541120      18.69271893       0.00316040      -0.00298325       0.00478045
C        2.71320618       0.11060833      18.69579882      -0.00039338       0.00159357      -0.00241324
C        4.05255972       0.88387100      18.69281313       0.00136037       0.00448375       0.00463544
C        1.37376895       2.43111729      18.69137049       0.00218724      -0.00055330       0.00974320
C        2.71300868       3.20330097      18.68567148       0.00340954       0.00206177       0.01671808
Si      -0.89341603       4.64232588       5.05623624       0.00002494       0.00039106      -0.05668974
Si      -1.78683208       6.18976788      12.64850174      -0.00201472      -0.00019026      -0.05265902
Si      -1.78683208       6.18976788       2.52836107       0.00015581      -0.00019695       0.15861572
Si      -0.89341603       4.64232588      10.12062657       0.00035944      -0.00045534      -0.07909767
Si      -2.68566707       4.64017692      15.18059429       0.00543454       0.00356278       0.00966118
Si      -2.68024811       4.64232589       7.58805938      -0.00004448      -0.00008305      -0.09117235
C       -2.68024811       4.64232589       5.68435955       0.00004782      -0.00102047       0.08187858
C       -2.68024811       4.64232589      13.27662505      -0.00657997      -0.00270094       0.05461974
C       -0.89341603       4.64232588       3.15844319       0.00211987       0.00012984       0.08287848
C       -1.78683208       6.18976788      10.75070869       0.00141925       0.00002468       0.02444065
C       -1.78683208       6.18976788       0.63055283      -0.00371499      -0.00150538      -0.23966075
C       -0.89341603       4.64232588       8.22281833      -0.00076259       0.00075128       0.11849726
Si      -0.89341603       7.73720981       5.05623624      -0.00008485      -0.00017869      -0.05701833
Si       0.89341603       4.64232591      12.64850174       0.00372296      -0.00234767      -0.05423048
Si       0.89341603       4.64232591       2.52836107      -0.00015298      -0.00002520       0.15861213
Si      -0.89341603       7.73720981      10.12062657      -0.00024888       0.00121356      -0.07886473
Si      -2.67944161       7.73417948      15.18056708      -0.00163291       0.00586391       0.00938247
Si      -2.68024811       7.73720982       7.58805938      -0.00023680       0.00005965      -0.09119266
C       -2.68024811       7.73720982       5.68435955       0.00028231      -0.00079576       0.08351766
C       -2.68024811       7.73720982      13.27662505      -0.00020466      -0.00616165       0.05386153
C       -0.89341603       7.73720981       3.15844319       0.00120559      -0.00074536       0.08264837
C        0.89341603       4.64232591      10.75070869       0.00036561      -0.00072531       0.02186338
C        0.89341603       4.64232591       0.63055283      -0.00174192      -0.00337200      -0.23789903
C       -0.89341603       7.73720981       8.22281833      -0.00164396      -0.00144650       0.11676074
Si      -3.57366413       6.18976784       5.05623624      -0.00001234       0.00002340      -0.05682884
Si      -4.46708018       7.73720984      12.64850174      -0.00285495      -0.00021006      -0.05504552
Si      -4.46708018       7.73720984       2.52836107       0.00010979       0.00010207       0.15819329
Si      -3.57366413       6.18976784      10.12062657       0.00046820      -0.00011647      -0.07896423
Si       0.00148102       6.19038894      15.18112300       0.00210471       0.00179412       0.01234130
Si       0.00000000       6.18976786       7.58805938       0.00035301      -0.00009153      -0.09127776
C        0.00000000       6.18976786       5.68435955      -0.00012084      -0.00022420       0.08015723
C        0.00000000       6.18976786      13.27662505       0.00371396      -0.00177869       0.07180346
C       -3.57366413       6.18976784       3.15844319       0.00086646      -0.00080296       0.08357911
C       -4.46708018       7.73720984      10.75070869       0.00275648      -0.00244049       0.02333739
C       -4.46708018       7.73720984       0.63055283      -0.00119556      -0.00027794      -0.24036421
C       -3.57366413       6.18976784       8.22281833      -0.00149895      -0.00021572       0.11768222
C       -2.64790655       4.75210606      18.69650340       0.00437268       0.00136140      -0.00757807
C       -1.30737944       5.52604660      18.69696340       0.00358900       0.00266238      -0.00564306
C       -3.98839033       7.07350118      18.69755764      -0.00087469      -0.00000463      -0.01010495
C       -2.64729264       7.84745865      18.69687596      -0.00103898       0.00030596      -0.00808920
C        0.03224398       4.75259385      18.69327012       0.00408368       0.00166479       0.00608837
C        1.37258444       5.52646380      18.68951653      -0.00007482       0.00207128       0.01069373
C       -1.30666968       7.07275569      18.69732813       0.00087957       0.00504810      -0.00586546
C        0.03320802       7.84589196      18.69576234       0.00010336       0.00574462      -0.00234073
Si       7.14732829      -0.00000002       5.05623624       0.00022034       0.00038541      -0.05666120
Si       6.25391224       1.54744198      12.64850174      -0.00216615      -0.00061295      -0.06190882
Si       6.25391224       1.54744198       2.52836107       0.00015787      -0.00026817       0.15865609
Si       7.14732829      -0.00000002      10.12062657      -0.00036972      -0.00020852      -0.07845773
Si       5.36074883      -0.00237966      15.18029148      -0.00134083       0.00463030       0.01010084
Si       5.36049621       0.00000000       7.58805938       0.00008639       0.00018461      -0.09092912
C        5.36049621       0.00000000       5.68435955      -0.00053505      -0.00132309       0.08243085
C        5.36049621       0.00000000      13.27662505       0.00130869      -0.00204557       0.04864810
C        7.14732829      -0.00000002       3.15844319      -0.00028591      -0.00013473       0.08391284
C        6.25391224       1.54744198      10.75070869      -0.00145679       0.00135549       0.02179344
C        6.25391224       1.54744198       0.63055283      -0.00324036      -0.00132566      -0.23902698
C        7.14732829      -0.00000002       8.22281833      -0.00069703       0.00009410       0.11795733
Si       7.14732829       3.09488391       5.05623624      -0.00002340      -0.00007868      -0.05703838
Si       8.93416034       0.00000002      12.64850174       0.00131692      -0.00398752      -0.05598500
Si       8.93416034       0.00000002       2.52836107      -0.00005014       0.00003240       0.15842778
Si       7.14732829       3.09488391      10.12062657      -0.00181726       0.00112794      -0.07849321
Si       5.36156568       3.09496944      15.17977308      -0.00291769       0.00213633       0.01020471
Si       5.36049621       3.09488393       7.58805938      -0.00041883       0.00015067      -0.09100754
C        5.36049621       3.09488393       5.68435955       0.00016095      -0.00059392       0.08295947
C        5.36049621       3.09488393      13.27662505      -0.00100427      -0.00017792       0.03828630
C        7.14732829       3.09488391       3.15844319       0.00068314       0.00018846       0.08283220
C        8.93416034       0.00000002      10.75070869       0.00111637       0.00075025       0.02296895
C        8.93416034       0.00000002       0.63055283      -0.00185736      -0.00287501      -0.23987261
C        7.14732829       3.09488391       8.22281833      -0.00160643      -0.00137271       0.11743231
Si       4.46708018       1.54744195       5.05623624       0.00004808       0.00001723      -0.05679567
Si       3.57366413       3.09488395      12.64850174       0.00041523       0.00207257      -0.06573000
Si       3.57366413       3.09488395       2.52836107       0.00016506       0.00004397       0.15821926
Si       4.46708018       1.54744195      10.12062657       0.00156529       0.00163651      -0.07861611
Si       8.03319619       1.54475613      15.18110665       0.00958302       0.00403843       0.01158796
Si       8.04074432       1.54744196       7.58805938      -0.00000643      -0.00014681      -0.09114252
C        8.04074432       1.54744196       5.68435955      -0.00011493       0.00054919       0.07938949
C        8.04074432       1.54744196      13.27662505      -0.01107708      -0.00537849       0.06942518
C        4.46708018       1.54744195       3.15844319       0.00114903      -0.00001903       0.08349889
C        3.57366413       3.09488395      10.75070869       0.00225974      -0.00152081       0.02011580
C        3.57366413       3.09488395       0.63055283      -0.00275674      -0.00001311      -0.24016520
C        4.46708018       1.54744195       8.22281833      -0.00187665      -0.00018486       0.11730555
C        5.39346656       0.10970534      18.69368279      -0.00033219       0.00413742       0.00179232
C        6.73365400       0.88329147      18.69651983       0.00159614       0.00533170      -0.00239935
C        4.05206239       2.43032378      18.68802547       0.00250400       0.00322802       0.01154194
C        5.39262485       3.20389913      18.68826872       0.00269940       0.00276239       0.00700009
C        8.07401324       0.11018026      18.69789903      -0.00079344       0.00219675      -0.00986172
C        9.41326964       0.88418165      18.69954223       0.00031676      -0.00055047      -0.01530295
C        6.73306212       2.43008770      18.69539665       0.00510235       0.00587446      -0.00169873
C        8.07276481       3.20364323      18.69807659       0.00615445       0.00391425      -0.00926368
Si       4.46708018       4.64232588       5.05623624       0.00016712       0.00041189      -0.05666660
Si       3.57366413       6.18976788      12.64850174      -0.00082815      -0.00104850      -0.07911542
Si       3.57366413       6.18976788       2.52836107       0.00017946      -0.00016095       0.15885587
Si       4.46708018       4.64232588      10.12062657      -0.00175452       0.00014630      -0.07779310
Si       2.68415206       4.63905034      15.17937388      -0.00306861       0.00429143       0.01027567
Si       2.68024811       4.64232589       7.58805938       0.00030262      -0.00005759      -0.09075043
C        2.68024811       4.64232589       5.68435955      -0.00047925      -0.00119042       0.08172766
C        2.68024811       4.64232589      13.27662505       0.00618685      -0.00487738       0.03063007
C        4.46708018       4.64232588       3.15844319       0.00119376       0.00017046       0.08331943
C        3.57366413       6.18976788      10.75070869      -0.00263050      -0.00033399       0.01769048
C        3.57366413       6.18976788       0.63055283      -0.00275519      -0.00167764      -0.23851018
C        4.46708018       4.64232588       8.22281833       0.00055150      -0.00000103       0.11801338
Si       4.46708018       7.73720981       5.05623624      -0.00011416      -0.00013884      -0.05687357
Si       6.25391224       4.64232591      12.64850174      -0.00319820      -0.00176069      -0.05798326
Si       6.25391224       4.64232591       2.52836107      -0.00007765       0.00001003       0.15849488
Si       4.46708018       7.73720981      10.12062657      -0.00142362      -0.00030519      -0.07797770
Si       2.69050550       7.73180396      15.17976602      -0.01062406       0.00675532       0.01024739
Si       2.68024811       7.73720982       7.58805938       0.00003497      -0.00032756      -0.09084890
C        2.68024811       7.73720982       5.68435955      -0.00074691      -0.00045817       0.08206833
C        2.68024811       7.73720982      13.27662505       0.01253027      -0.00870704       0.03672024
C        4.46708018       7.73720981       3.15844319      -0.00026585      -0.00099785       0.08342150
C        6.25391224       4.64232591      10.75070869       0.00203220       0.00013421       0.02223953
C        6.25391224       4.64232591       0.63055283      -0.00072325      -0.00311695      -0.23808621
C        4.46708018       7.73720981       8.22281833      -0.00222503      -0.00110737       0.11759840
Si       1.78683208       6.18976784       5.05623624       0.00008639      -0.00004242      -0.05697076
Si       0.89341603       7.73720984      12.64850174       0.00278399      -0.00034864      -0.05178253
Si       0.89341603       7.73720984       2.52836107       0.00023037       0.00000206       0.15814984
Si       1.78683208       6.18976784      10.12062657       0.00387157      -0.00013267      -0.07839396
Si       5.34535001       6.18856114      15.18019619       0.01699345       0.00266803       0.01268582
Si       5.36049621       6.18976786       7.58805938      -0.00027588      -0.00031907      -0.09092912
C        5.36049621       6.18976786       5.68435955       0.00061604      -0.00000411       0.07992454
C        5.36049621       6.18976786      13.27662505      -0.02171991      -0.00594928       0.05266262
C        1.78683208       6.18976784       3.15844319       0.00049082      -0.00005682       0.08264580
C        0.89341603       7.73720984      10.75070869       0.00095105       0.00086235       0.02337801
C        0.89341603       7.73720984       0.63055283      -0.00211807      -0.00124030      -0.24026728
C        1.78683208       6.18976784       8.22281833      -0.00306733      -0.00067286       0.11714717
C        2.71295074       4.75222424      18.68190070       0.00091557      -0.00042655       0.01642498
C        4.05398564       5.52685745      18.68227676      -0.00218441       0.00088960       0.00568857
C        1.37301353       7.07319294      18.69287394      -0.00089911       0.00243072       0.00263152
C        2.71427522       7.84764351      18.69158959      -0.00350878      -0.00023963      -0.00303236
C        5.39330564       4.75216917      18.68831361       0.00172701       0.00304959       0.00240578
C        6.73273079       5.52620810      18.69569722       0.00231039       0.00366434      -0.00536384
C        4.05455200       7.07441811      18.68797998      -0.00423486       0.00066154      -0.00364788
C        5.39339407       7.84697660      18.69561362      -0.00359466      -0.00196329      -0.01096190
C        3.93886121       5.24782747      21.89352288      -0.00286961       0.02072386       0.00047385
O        3.89100992       6.41969847      21.92252448      -0.00472877      -0.02450647       0.00676380
O        3.98728636       4.07641886      21.85227206      -0.00190133      -0.00119942       0.00205663
