101
Lattice="17.265850017958673 -0.00010359510010775204 0.0 -8.633011338229426 14.952692293502695 0.0 -0.0 0.0 15.000000722551901" Properties=species:S:1:pos:R:3:forces:R:3 energy=-26515.661355604112 free_energy=-26515.661355604112 pbc="T T T"
C        1.20954002       0.66264128       5.00874206      -0.00532913       0.00082764       0.00228160
C       -0.02384267       1.37479898       5.00554936       0.00244281      -0.00455471       0.00390448
C       -0.02377233       2.79879792       5.00177820      -0.00379932       0.00649049       0.00355686
C       -1.25709319       3.51104726       5.00134232       0.00299379      -0.00750891       0.00075308
C       -1.25691153       4.93505295       4.99865126      -0.00408600       0.00307478       0.00032730
C       -2.49016176       5.64719240       4.99986178      -0.00629740      -0.00746854      -0.00286987
C       -2.49011645       7.07117475       4.99727850      -0.00276342      -0.00171184       0.00124647
C       -3.72348201       7.78303483       4.99951005      -0.00201472       0.00453517       0.00118785
C       -3.72349764       9.20718596       5.00008681       0.00087083      -0.00761252       0.00173601
C       -4.95676433       9.91903482       5.00505176      -0.00265852       0.00618813       0.00279942
C       -4.95674834      11.34322758       5.00874118      -0.00308044      -0.00870601       0.00001466
C       -6.19007363      12.05507218       5.01323930       0.00243046       0.00910659       0.00031059
C       -6.19004693      13.47927921       5.01393461      -0.00737161      -0.00521265      -0.00275982
C       -7.42348846      14.19128294       5.01291873       0.00533067       0.00243072       0.00066592
C        3.67629082       0.66270430       5.00897076      -0.00827972      -0.00269683      -0.00144162
C        2.44275890       1.37458952       5.00760016       0.00920943       0.00189439       0.00102073
C        2.44291065       2.79868701       5.00375163      -0.01096396       0.00225923       0.00217438
C        1.20948777       3.51092464       5.00072013       0.00774982      -0.00352730       0.00325245
C        1.20962101       4.93499261       4.99765439      -0.00669901       0.00634111       0.00185839
C       -0.02371614       5.64716123       4.99601162       0.00752819      -0.00109992       0.00073816
C       -0.02343288       7.07128318       4.99411812      -0.00797788      -0.00357923       0.00151875
C       -1.25690745       7.78314122       4.99439500       0.00569576       0.00588757       0.00241169
C       -1.25686075       9.20730143       4.99431713      -0.00085232      -0.00926703       0.00214456
C       -2.49020454       9.91910126       4.99769945       0.00270429       0.00970026      -0.00001106
C       -2.49010829      11.34334152       5.00028523      -0.00732224      -0.01200937      -0.00223223
C       -3.72354229      12.05511588       5.00626514       0.00657662       0.00994271      -0.00305164
C       -3.72338563      13.47931864       5.00767316      -0.00664322      -0.00591945      -0.00277499
C       -4.95685111      14.19120053       5.01142939       0.00835377       0.00752330      -0.00332906
C        6.14302661       0.66285432       5.00085602      -0.01032864      -0.00554973      -0.00090220
C        4.90949143       1.37475579       5.00483072       0.00847667      -0.00016815      -0.00045354
C        4.90962375       2.79885685       5.00311720      -0.00660516       0.00530059       0.00035404
C        3.67602905       3.51073178       5.00307380       0.01109560      -0.00284287       0.00154472
C        3.67613567       4.93488118       4.99950743      -0.01116939       0.00730296      -0.00375792
C        2.44272110       5.64745225       4.99638773       0.00841985      -0.00625575      -0.00406851
C        2.44296128       7.07152665       4.99155642      -0.00697977      -0.00225846      -0.00831958
C        1.20968988       7.78327602       4.99360658       0.00429503       0.00334783      -0.00352370
C        1.20977276       9.20727944       4.99514231      -0.00608657      -0.00625318      -0.00056050
C       -0.02359052       9.91914730       4.99450339       0.00173627       0.00964961       0.00143699
C       -0.02359931      11.34338803       4.99556228      -0.00123362      -0.01463935       0.00128941
C       -1.25694349      12.05512476       4.99719674       0.00470409       0.01326381       0.00025197
C       -1.25687629      13.47938471       4.99732702      -0.00106058      -0.00803521      -0.00032987
C       -2.49018259      14.19129783       5.00189640       0.00354529       0.00911533      -0.00067697
C        8.60934781       0.66277631       4.99362036       0.00268706       0.00018383       0.00410168
C        7.37614443       1.37494128       4.99578101       0.00010284      -0.00188462       0.00502342
C        7.37609219       2.79896906       4.99720204       0.00089114       0.00663627       0.00265235
C        6.14285800       3.51122812       5.00045176       0.00064380      -0.00880474       0.00096828
C        6.14293456       4.93511889       4.99979340       0.00115828       0.00543711      -0.00485347
C        4.90949535       5.64701865       4.99686019       0.00286369      -0.00620664      -0.00941384
C        4.90903500       7.07144298       4.99206887      -0.00143493       0.00391245      -0.01290642
C        3.67559270       7.78357271       4.98884406       0.00530650       0.00086800      -0.01269508
C        3.67589094       9.20718463       4.99820232      -0.00113926      -0.00226900      -0.00880269
C        2.44286827       9.91911019       4.99930218       0.00278502       0.00635962      -0.00355841
C        2.44287301      11.34321085       5.00260432       0.00165939      -0.00728625       0.00075899
C        1.20966615      12.05513469       4.99807997      -0.00095954       0.00802878       0.00157866
C        1.20960838      13.47923525       4.99717049       0.00281407      -0.00237544       0.00165939
C       -0.02354759      14.19131819       4.99461314      -0.00422535       0.00524402       0.00253819
C       11.07570810       0.66270784       4.99970936       0.00773542       0.00102690      -0.00034941
C        9.84261437       1.37491095       4.99518267      -0.00678668      -0.00570296       0.00384946
C        9.84238321       2.79891406       4.99676995       0.00857257       0.00712067       0.00437422
C        8.60929592       3.51118158       4.99711145      -0.00815657      -0.00561349       0.00398110
C        8.60906348       4.93511882       5.00079556       0.00491955       0.00742560       0.00168099
C        7.37590204       5.64736435       5.00107124       0.00183063      -0.01169646      -0.00328150
C        7.37603863       7.07100191       5.00449486       0.00357409       0.00475963      -0.00604441
C        6.14294420       7.78334849       5.00206887      -0.00233328      -0.00631951      -0.01093644
C        6.14266091       9.20742379       5.01169899       0.00023268       0.00108578      -0.00610406
C        4.90904708       9.91921679       5.00967457      -0.00224200       0.00028899      -0.00690444
C        4.90930030      11.34335541       5.01388285       0.00247854      -0.00535304       0.00034530
C        3.67613773      12.05515937       5.00866178      -0.00687924       0.00490849       0.00012984
C        3.67603956      13.47923479       5.00744205       0.00390396      -0.00028282      -0.00149073
C        2.44285837      14.19122910       5.00109213      -0.00534481       0.00674426      -0.00059907
C       13.54209381       0.66263145       5.00721418       0.00848413       0.00584386       0.00076593
C       12.30904721       1.37484764       5.00389308      -0.00987149      -0.00710062      -0.00252637
C       12.30883559       2.79879624       5.00368197       0.00921201       0.00785935      -0.00247212
C       11.07576206       3.51104803       5.00108303      -0.00870087      -0.00975862      -0.00117834
C       11.07556459       4.93489653       5.00290659       0.00876952       0.00931871      -0.00024143
C        9.84247490       5.64712675       5.00328460      -0.01146635      -0.00885051       0.00116291
C        9.84231375       7.07093940       5.00641727       0.00901917       0.00480668       0.00341880
C        8.60917819       7.78301550       5.00925741      -0.00528567      -0.00376487       0.00004937
C        8.60917118       9.20705099       5.01365674       0.00565026       0.00094617       0.00290149
C        7.37618983       9.91934915       5.01693129      -0.00507793       0.00065409       0.00011030
C        7.37598983      11.34336784       5.01835745       0.00229111      -0.00168382       0.00086158
C        6.14265931      12.05526320       5.01690368      -0.00337972       0.00020877       0.00064612
C        6.14248022      13.47927811       5.01367510       0.00578447       0.00100427       0.00254179
C        4.90931026      14.19131270       5.01003415      -0.00536384      -0.00039106      -0.00066026
C       16.00863970       0.66271543       5.00752863       0.00564074      -0.00063095       0.00469946
C       14.77540691       1.37482720       5.00653225      -0.00086081      -0.00828075       0.00082455
C       14.77542745       2.79876811       5.00438688       0.00367334       0.00858029      -0.00090734
C       13.54221866       3.51094198       5.00473500      -0.00466501      -0.00469766      -0.00458273
C       13.54222324       4.93492534       5.00318569       0.00709187       0.00600327      -0.00235487
C       12.30897917       5.64699771       5.00355066      -0.00368079      -0.00609686      -0.00303339
C       12.30897445       7.07097305       5.00267440       0.00560166       0.00068006       0.00082095
C       11.07574797       7.78288012       5.00533330      -0.00648124       0.00221758       0.00272820
C       11.07578900       9.20688477       5.00718134       0.00092560       0.00330412       0.00426777
C        9.84252234       9.91905078       5.01221423      -0.00028796      -0.00117808       0.00523091
C        9.84247849      11.34313347       5.01466823       0.00208954      -0.00280764       0.00284724
C        8.60932229      12.05523392       5.01691181      -0.00445495       0.00117911       0.00080578
C        8.60910679      13.47925734       5.01431215       0.00239473       0.00004808       0.00289995
C        7.37581311      14.19126959       5.01195951      -0.00289712       0.00341314       0.00446138
C        5.03323242       7.16419014       8.34071255      -0.01568142       0.00870447       0.00676509
O        6.05901139       6.58806437       8.38482362       0.01595190      -0.01125320       0.00068237
O        4.00719002       7.74052053       8.29874678       0.00636142      -0.00181854       0.02504666
