48
Lattice="8.315575849598094 0.0 0.0 4.157787924799047 7.20149657514819 0.0 0.0 0.0 19.999999365264614" Properties=species:S:1:pos:R:3:forces:R:3 energy=-278732.65536114294 free_energy=-278732.65536114294 pbc="T T T"
Pt       3.00284680       1.20024997       4.60199115       0.00869701      -0.08160964      -0.42377205
Pt       5.77470538       1.20024997       4.60199115       0.00963572      -0.08145538      -0.42223530
Pt       8.54656396       1.20024997       4.60199115       0.01017180      -0.08142349      -0.42424102
Pt       4.38877609       3.60074992       4.60199115       0.00963829      -0.08066939      -0.42022316
Pt       7.16063467       3.60074992       4.60199115       0.00944546      -0.08087636      -0.42104771
Pt       9.93249325       3.60074992       4.60199115       0.00951205      -0.08177934      -0.42309148
Pt       5.77470538       6.00124987       4.60199115       0.00927294      -0.07681016      -0.42983060
Pt       8.54656396       6.00124987       4.60199115       0.00902663      -0.08199736      -0.42271918
Pt      11.31842254       6.00124987       4.60199115       0.01017386      -0.08177316      -0.42275364
Pt       1.61691751       2.00041662       6.86520421      -0.01281515       0.07776996       0.42814344
Pt       4.38877609       2.00041662       6.86520421      -0.01358057       0.07624272       0.42677536
Pt       7.16063467       2.00041662       6.86520421      -0.01397575       0.07637848       0.42540393
Pt       3.00284680       4.40091657       6.86520421      -0.01350086       0.07624684       0.43091792
Pt       5.77470538       4.40091657       6.86520421      -0.01426834       0.08215343       0.42371266
Pt       8.54656396       4.40091657       6.86520421      -0.01193815       0.07752313       0.42657018
Pt       4.38877609       6.80141652       6.86520421      -0.01373689       0.07691892       0.42981440
Pt       7.16063467       6.80141652       6.86520421      -0.01337642       0.07840631       0.42717182
Pt       9.93249325       6.80141652       6.86520421      -0.01287480       0.07336283       0.43312392
Pt       1.58264335       0.69203461       9.22386629       0.00442487      -0.00205123       0.00145524
Pt       4.35408501       0.69090453       9.22366207       0.00216538       0.00160771      -0.00241015
Pt       7.12733060       0.69119687       9.22363450      -0.00037358      -0.00366922      -0.00135677
Pt       2.96855531       3.09218131       9.22397939       0.00355429       0.00229857      -0.00438913
Pt       5.74076256       3.09009845       9.22176815       0.00015581       0.00102099      -0.00147993
Pt       8.51260104       3.09241545       9.22329551       0.00244743       0.00046820       0.00557287
Pt       4.35481482       5.49230772       9.22358493       0.00447526      -0.00298814      -0.00014912
Pt       7.12649425       5.49212829       9.22287635      -0.00083047       0.00172958       0.00901146
Pt       9.89855207       5.49254955       9.22468737       0.00099450       0.00226000      -0.00694404
C        1.58237915       1.42244037      11.28287809       0.00190622       0.00119505      -0.00192421
C        2.96825752       2.24920432      11.29806770       0.00303030       0.00187073      -0.00417624
C        2.96878299       3.82248916      11.28299429       0.00138840       0.00344939      -0.00294957
C        4.35470667       4.64868322      11.29621447      -0.00185968       0.00294546      -0.00006556
C        4.35475000       6.22269452      11.28270447      -0.00152029       0.00408728      -0.00344708
C        5.73994988       7.04960201      11.29704442       0.00007199       0.00315037       0.00269914
C        4.35422281       1.42302902      11.28113625       0.00362397       0.00176712      -0.00262664
C        5.74018447       2.25069043      11.28749184      -0.00208876       0.00143750       0.00800179
C        5.74063217       3.82187429      11.27788289      -0.00328896       0.00025351      -0.00249423
C        7.12541197       4.64882159      11.29676692      -0.00009565       0.00150769      -0.00476605
C        7.12593599       6.22287895      11.28263312       0.00091917       0.00213813      -0.00251248
C        8.51160908       7.05067524      11.29789902       0.00438219       0.00095619      -0.00556798
C        7.12643199       1.42301121      11.28150144      -0.00307890       0.00225640      -0.00643727
C        8.51136627       2.24921970      11.29819784       0.00145062       0.00143236      -0.00428063
C        8.51141466       3.82263880      11.28324976       0.00447038       0.00226848      -0.00574282
C        9.89734629       4.64965880      11.29700652       0.00525251       0.00138762       0.00670081
C        9.89773692       6.22398238      11.28323060       0.00455034      -0.00065409      -0.00574076
C       11.28358546       7.05057892      11.29740562      -0.00030390       0.00173755       0.00008048
C        5.72130823       2.86519128      15.57093081      -0.00227491       0.00120379      -0.00635242
O        5.75014043       2.83390491      16.74129801       0.00164165      -0.00198823       0.00074331
O        5.69235824       2.89669355      14.39465554      -0.00069728       0.00031265      -0.00017201
