101
Lattice="17.265850017958673 -0.00010359510010775204 0.0 -8.633011338229426 14.952692293502695 0.0 -0.0 0.0 15.000000722551901" Properties=species:S:1:pos:R:3:forces:R:3 energy=-26089.643395990908 free_energy=-26089.643395990908 pbc="T T T"
C        1.20554654       0.66389265       5.01723329       0.00175915       0.00232479       0.00090786
C       -0.02784464       1.37599328       5.01723156       0.00144933       0.00255902       0.00091506
C       -0.02792406       2.80012548       5.01068780       0.00074279      -0.00159408       0.00229985
C       -1.26120301       3.51222612       5.00963976      -0.00059007       0.00155475       0.00040803
C       -1.26114430       4.93629443       5.00051304       0.00089603      -0.00168124      -0.00129326
C       -2.49445433       5.64837607       4.99891940       0.00457219       0.00438296       0.00141359
C       -2.49413318       7.07248928       4.99266053      -0.00038927      -0.00300665       0.00048594
C       -3.72745530       7.78450704       4.99450107       0.00078084      -0.00364017       0.00374455
C       -3.72723429       9.20840442       4.99716691      -0.00098062       0.00327019       0.00123542
C       -4.96058403       9.92042391       5.00347413       0.00172058       0.00294906      -0.00199286
C       -4.96045281      11.34437827       5.01021817       0.00010644       0.00677769       0.00092251
C       -6.19384744      12.05652034       5.01494383       0.00131538      -0.00274594       0.00063969
C       -6.19395104      13.48054722       5.01813974       0.00266083      -0.00059958      -0.00234870
C       -7.42728869      14.19254080       5.01921886      -0.00105698       0.00299791       0.00700266
C        3.67226328       0.66388229       5.00964322       0.00175683      -0.00000514       0.00041600
C        2.43892390       1.37588969       5.01068780      -0.00177355      -0.00024657       0.00230114
C        2.43882031       2.79996664       5.00192193      -0.00096853       0.00250477       0.00046897
C        1.20541359       3.51207418       5.00192538       0.00281047       0.00026302       0.00045071
C        1.20554827       4.93617185       4.99178342       0.00039286      -0.00213170       0.00084229
C       -0.02768579       5.64823104       4.99158832      -0.00272640      -0.00492186       0.00022909
C       -0.02737328       7.07219922       4.98408285       0.00065563       0.00494680       0.00004319
C       -1.26057280       7.78430157       4.98663993      -0.00677846      -0.00005065       0.00294648
C       -1.26037597       9.20832845       4.98673316      -0.00667021      -0.00019103      -0.00051114
C       -2.49374470       9.92029269       4.99461502      -0.00164088       0.00238007       0.00057670
C       -2.49373434      11.34436446       5.00003477       0.00222143       0.00267523      -0.00286344
C       -3.72697185      12.05635113       5.00862626      -0.00603104       0.00274800      -0.00304059
C       -3.72706164      13.48050060       5.01027170      -0.00374404      -0.00135600      -0.00036458
C       -4.96055468      14.19246656       5.01445694       0.00112177       0.00262458       0.00111817
C        6.13886089       0.66393236       4.99895911       0.00149407       0.00579424       0.00142079
C        4.90551633       1.37596911       5.00051994      -0.00188565      -0.00011364      -0.00124236
C        4.90534194       2.80014793       4.99157969      -0.00285187      -0.00469149       0.00024271
C        3.67206127       3.51213115       4.99177306      -0.00188950      -0.00070680       0.00084975
C        3.67199911       4.93622710       4.98265842       0.00795962       0.00332264      -0.00373736
C        2.43888419       5.64816543       4.98266533      -0.00080064       0.00845379      -0.00373556
C        2.43949886       7.07248756       4.97514432      -0.00057053       0.00165013      -0.00224612
C        1.20600926       7.78426532       4.97749248       0.00217310       0.00106701      -0.00078881
C        1.20613530       9.20837852       4.97707465       0.00426289      -0.00224483       0.00034838
C       -0.02715055       9.92035312       4.98283799      -0.00068494       0.00102176       0.00205688
C       -0.02716436      11.34438863       4.98779501      -0.00037024       0.00606060      -0.00090657
C       -1.26037770      12.05648926       4.99568896      -0.00587137      -0.00303930      -0.00096056
C       -1.26053309      13.48058002       4.99830128      -0.00489538       0.00006968       0.00039209
C       -2.49387765      14.19263922       5.00363125      -0.00254462      -0.00361034      -0.00329358
C        8.60531519       0.66419826       4.99458567      -0.00375690      -0.00146733       0.00367951
C        7.37202588       1.37627644       4.99271405      -0.00264798      -0.00219444       0.00047668
C        7.37168747       2.80047426       4.98665719       0.00324473      -0.00598244       0.00296654
C        6.13838608       3.51240050       4.98407077       0.00366305       0.00294674       0.00008819
C        6.13836018       4.93657069       4.97747003      -0.00045586       0.00220935      -0.00076593
C        4.90519691       5.64891649       4.97513224       0.00160025       0.00007251      -0.00223763
C        4.90545245       7.07292093       4.96916343      -0.00157814      -0.00180440      -0.00716695
C        3.67259996       7.78470905       4.96916689      -0.00087957      -0.00201317      -0.00714715
C        3.67275881       9.20838198       4.97111793       0.00086338       0.00013807      -0.00742252
C        2.43976475       9.92029441       4.97627178      -0.00260530      -0.00248677      -0.00103050
C        2.43951267      11.34444906       4.98452141      -0.00778350      -0.00081375       0.00019849
C        1.20614394      12.05651516       4.98829054      -0.00319768      -0.00081453       0.00058030
C        1.20582970      13.48063700       4.99416266       0.00050137       0.00060627       0.00223866
C       -0.02742853      14.19269274       4.99556292      -0.00003985       0.00372579      -0.00108552
C       11.07162100       0.66423279       5.00351902       0.00167996       0.00244383      -0.00196792
C        9.83833170       1.37634033       4.99723253       0.00291486       0.00054559       0.00121793
C        9.83808825       2.80051397       4.99465473       0.00269477      -0.00050316       0.00051473
C        8.60482829       3.51265431       4.98674697       0.00294854      -0.00610843      -0.00052656
C        8.60483692       4.93666047       4.98281036       0.00107935      -0.00021880       0.00208876
C        7.37160977       5.64872830       4.97704357      -0.00414796       0.00247237       0.00035224
C        7.37132489       7.07302970       4.97623898      -0.00089834      -0.00326710      -0.00097779
C        6.13830493       7.78488689       4.97110584      -0.00049597       0.00097471      -0.00741892
C        6.13849485       9.20859262       4.97661192      -0.00119685      -0.00238367      -0.00762152
C        4.90562338       9.92040319       4.97661883      -0.00167996      -0.00215458      -0.00761381
C        4.90561475      11.34426259       4.98987900       0.00095516      -0.00352498      -0.00070628
C        3.67248428      12.05652206       4.99225305       0.00069625       0.00144805      -0.00370650
C        3.67219249      13.48067844       5.00200653       0.00038618       0.00121690      -0.00197332
C        2.43893426      14.19286367       5.00006758      -0.00265518      -0.00245875       0.00148070
C       13.53814091       0.66422761       5.01494038      -0.00318894      -0.00081144       0.00070397
C       12.30472557       1.37631788       5.01023198       0.00559009       0.00315012       0.00094899
C       12.30456327       2.80051915       5.00862971       0.00500285      -0.00392325      -0.00306784
C       11.07135338       3.51254726       5.00004341       0.00107112       0.00300973      -0.00291512
C       11.07137928       4.93671227       4.99565270       0.00013035      -0.00670235      -0.00095337
C        9.83808134       5.64865060       4.98775185       0.00543480       0.00285084      -0.00092020
C        9.83813486       7.07277762       4.98823356       0.00078342      -0.00289121       0.00054713
C        8.60479031       7.78488171       4.98447824       0.00334321      -0.00691601       0.00022163
C        8.60496987       9.20870485       4.99222543       0.00096442       0.00130483      -0.00371961
C        7.37158215       9.92051714       4.98986519      -0.00356123      -0.00075205      -0.00070011
C        7.37201034      11.34460963       5.00189085      -0.00728574      -0.00225434      -0.00062478
C        6.13868305      12.05668264       5.00189776       0.00172212      -0.00734204      -0.00064406
C        6.13856219      13.48063873       5.01173066       0.00058775       0.00334963       0.00132797
C        4.90531432      14.19280669       5.01070679       0.00114671       0.00305576       0.00099193
C       16.00467291       0.66402560       5.01921541       0.00335375       0.00043426       0.00698414
C       14.77141468       1.37614004       5.01813111      -0.00162597       0.00182677      -0.00232659
C       14.77124893       2.80024462       5.01444830       0.00201497       0.00245746       0.00109375
C       13.53793718       3.51250410       5.01025443       0.00074716      -0.00394510      -0.00037667
C       13.53806494       4.93653098       5.00358808      -0.00171415      -0.00398470      -0.00330207
C       12.30474283       5.64860226       4.99823740       0.00239575      -0.00391270       0.00036638
C       12.30488096       7.07254626       4.99547659       0.00342702       0.00216461      -0.00103975
C       11.07160374       7.78455711       4.99409187       0.00009153       0.00118631       0.00222503
C       11.07184201       9.20857535       5.00002096      -0.00078367      -0.00354478       0.00145704
C        9.83845774       9.92053095       5.00198409       0.00082121       0.00106367      -0.00198875
C        9.83860622      11.34451985       5.01070507       0.00208182       0.00266289       0.00097419
C        8.60523577      12.05648753       5.01173066       0.00273025       0.00211807       0.00132746
C        8.60520469      13.48054549       5.01788766       0.00124544       0.00098730       0.00153006
C        7.37183423      14.19264612       5.01788593       0.00021803       0.00133620       0.00154549
C        4.92901860       8.53760716       9.16665905      -0.00499668      -0.00726902       0.01599663
O        4.91828615       8.51939514       7.99292484       0.00159923       0.00138865       0.00895284
O        4.93916229       8.55496279      10.34032938       0.00230757       0.00347536       0.01351886
