101
Lattice="17.265850017958673 -0.00010359510010775204 0.0 -8.633011338229426 14.952692293502695 0.0 -0.0 0.0 15.000000722551901" Properties=species:S:1:pos:R:3:forces:R:3 energy=-26237.124878913823 free_energy=-26237.124878913823 pbc="T T T"
C        1.20446477       0.66214880       5.00975763       0.00171750       0.00071194      -0.00166942
C       -0.02877480       1.37417919       5.00975466      -0.00043015       0.00070011      -0.00160900
C       -0.02862637       2.79833570       5.00792051       0.00137708       0.00121896      -0.00149047
C       -1.26185181       3.51040169       5.00669484      -0.00101121       0.00014064       0.00226411
C       -1.26184857       4.93452061       5.00471726       0.00242635      -0.00028179       0.00011287
C       -2.49515642       5.64646522       5.00663737      -0.00149124      -0.00082944       0.00210599
C       -2.49534974       7.07046624       5.00768292       0.00165502       0.00238033      -0.00162571
C       -3.72871011       7.78242826       5.00962213       0.00007045       0.00045020      -0.00173010
C       -3.72889692       9.20648162       5.00969388       0.00116188       0.00275288      -0.00190390
C       -4.96220386       9.91848696       5.00743024      -0.00050034       0.00113643      -0.00178460
C       -4.96216513      11.34258500       5.00651256       0.00159768       0.00165296       0.00089577
C       -6.19540503      12.05460335       5.00409130      -0.00241658      -0.00000257      -0.00065743
C       -6.19531950      13.47874240       5.00634244       0.00110815      -0.00005142       0.00105467
C       -7.42858728      14.19071464       5.00723899      -0.00200777      -0.00044172      -0.00141693
C        3.67103546       0.66238660       5.00669977       0.00050291      -0.00035018       0.00224843
C        2.43775149       1.37438359       5.00792101       0.00038155       0.00044763      -0.00143339
C        2.43793637       2.79854296       5.00277621      -0.00057258       0.00032473      -0.00299174
C        1.20464824       3.51057726       5.00277595       0.00049365      -0.00033964      -0.00298479
C        1.20481400       4.93474817       4.99393203      -0.00157480      -0.00220009      -0.00168022
C       -0.02856894       5.64668482       4.99792250      -0.00010516      -0.00219649      -0.00261250
C       -0.02864452       7.07073981       4.99357557       0.00040752      -0.00150718      -0.00178769
C       -1.26211666       7.78258260       5.00234579       0.00164782       0.00025865      -0.00343371
C       -1.26225834       9.20664313       5.00226877       0.00150795      -0.00051011      -0.00314497
C       -2.49565536       9.91864043       5.00774681       0.00311515      -0.00009873      -0.00226077
C       -2.49564833      11.34275824       5.00668833       0.00078933      -0.00038875       0.00143699
C       -3.72892569      12.05479949       5.00689290       0.00160540      -0.00188745       0.00359646
C       -3.72876610      13.47891242       5.00605980      -0.00047077      -0.00134649       0.00652289
C       -4.96202088      14.19095021       5.00680203      -0.00162802      -0.00028539       0.00370367
C        6.13757194       0.66233972       5.00664346      -0.00059238      -0.00103076       0.00211396
C        4.90435643       1.37448044       5.00472320      -0.00168587       0.00006891       0.00011081
C        4.90446355       2.79859643       4.99792805      -0.00197821      -0.00116034      -0.00271329
C        3.67122756       3.51077204       4.99393463      -0.00181854      -0.00278785      -0.00167379
C        3.67133775       4.93489495       4.97897740      -0.00309895      -0.00456011       0.00010901
C        2.43808897       5.64691761       4.97897649      -0.00275494      -0.00476888       0.00012778
C        2.43830752       7.07095495       4.96630744      -0.00467966      -0.00360597       0.00440816
C        1.20472708       7.78267623       4.97843644      -0.00275725      -0.00088163      -0.00017586
C        1.20453178       9.20662303       4.97799093      -0.00124390      -0.00212707       0.00007688
C       -0.02889254       9.91858483       4.99322953       0.00007996       0.00031753      -0.00266701
C       -0.02901712      11.34264611       4.99723400      -0.00013833      -0.00126575      -0.00290329
C       -1.26232320      12.05478268       5.00441431       0.00241889      -0.00316066      -0.00010953
C       -1.26219562      13.47885520       5.00641822      -0.00257959      -0.00181443       0.00176918
C       -2.49546023      14.19097818       5.00679388      -0.00057876      -0.00216795       0.00414590
C        8.60412810       0.66202526       5.00961087      -0.00024117       0.00076722      -0.00172470
C        7.37086971       1.37419875       5.00768291       0.00172907       0.00119196      -0.00163754
C        7.37096358       2.79825785       5.00234580      -0.00109683       0.00116265      -0.00345351
C        6.13775606       3.51054548       4.99357398      -0.00133492      -0.00006582      -0.00174449
C        6.13761909       4.93464304       4.97843070       0.00028488      -0.00300896      -0.00013627
C        4.90446563       5.64709087       4.96630328      -0.00058750      -0.00466064       0.00432614
C        4.90426161       7.07080926       4.94809893       0.00087906      -0.00342651       0.00911996
C        3.67136341       7.78262723       4.94810394      -0.00284827       0.00000720       0.00903948
C        3.67118379       9.20613376       4.94721443      -0.00171930       0.00227594       0.00835300
C        2.43809129       9.91809652       4.96493849      -0.00196458       0.00414513       0.00472466
C        2.43762831      11.34219545       4.97695504       0.00121176       0.00215664       0.00021829
C        1.20436925      12.05439290       4.99261063       0.00158200       0.00031085      -0.00236773
C        1.20439984      13.47845604       5.00167722      -0.00018949      -0.00015581      -0.00332161
C       -0.02886815      14.19068219       5.00734792       0.00197666      -0.00116240      -0.00162931
C       11.07074155       0.66180717       5.00741440       0.00113951       0.00066232      -0.00175529
C        9.83746772       1.37390354       5.00967887       0.00264515       0.00148044      -0.00195378
C        9.83760269       2.79799458       5.00773782      -0.00216693       0.00252328      -0.00222992
C        8.60428533       3.51014106       5.00226769      -0.00005785       0.00173909      -0.00317094
C        8.60417472       4.93424164       4.99323154      -0.00054662       0.00020415      -0.00261018
C        7.37086928       5.64642919       4.97799673      -0.00002468      -0.00075076      -0.00006505
C        7.37025636       7.07048995       4.96493911       0.00405514      -0.00044377       0.00472852
C        6.13711976       7.78239169       4.94721269       0.00389162       0.00096005       0.00832626
C        6.13695351       9.20592941       4.94626854       0.00484164       0.00368619       0.00854866
C        4.90406100       9.91774179       4.94626844       0.00169050       0.00637017       0.00853478
C        4.90403929      11.34156407       4.96371252       0.00174604       0.00663499       0.00464675
C        3.67091845      12.05405555       4.97653951       0.00076825       0.00217824       0.00002545
C        3.67095642      13.47816994       4.99217577       0.00132000       0.00167790      -0.00256313
C        2.43773284      14.19037210       5.00164480       0.00031470       0.00025094      -0.00379006
C       13.53727845       0.66188609       5.00407859       0.00060370      -0.00190724      -0.00062632
C       12.30402122       1.37391617       5.00650083       0.00110275       0.00124004       0.00087906
C       12.30420643       2.79804213       5.00688359      -0.00273360      -0.00016172       0.00359929
C       11.07090757       3.51004979       5.00668435       0.00002185       0.00131640       0.00137323
C       11.07089134       4.93416453       5.00441141      -0.00446703       0.00027588      -0.00005888
C        9.83749320       5.64616031       4.99723776       0.00001028       0.00040315      -0.00287012
C        9.83721354       7.07020665       4.99262201      -0.00136808       0.00089346      -0.00234767
C        8.60378118       7.78213640       4.97696175       0.00219264       0.00303390       0.00024734
C        8.60364044       9.20615826       4.97655250       0.00110712       0.00082610      -0.00000668
C        7.37003013       9.91781873       4.96371368       0.00528002       0.00492495       0.00466218
C        7.37046222      11.34201708       4.97609638       0.00032370       0.00228288       0.00059958
C        6.13721315      12.05402618       4.97609863       0.00217644       0.00179977       0.00047180
C        6.13741698      13.47819045       4.99199756      -0.00093023       0.00039364      -0.00305061
C        4.90421955      14.19040116       4.99644725       0.00014578      -0.00014501      -0.00248549
C       16.00377894       0.66196322       5.00723882       0.00068726      -0.00155629      -0.00147607
C       14.77057530       1.37405008       5.00633271      -0.00131898      -0.00035224       0.00111972
C       14.77069627       2.79821187       5.00679792       0.00104361      -0.00186328       0.00370547
C       13.53745140       3.51022367       5.00605083      -0.00214970      -0.00107266       0.00656660
C       13.53743742       4.93432606       5.00678882      -0.00078110      -0.00146116       0.00412431
C       12.30411451       5.64630876       5.00641892      -0.00140074      -0.00294854       0.00177972
C       12.30388711       7.07032396       5.00735857      -0.00144316       0.00102356      -0.00157017
C       11.07046967       7.78227027       5.00169754      -0.00094488      -0.00042937      -0.00335220
C       11.07031950       9.20633518       5.00165966       0.00047797      -0.00014707      -0.00376692
C        9.83694621       9.91825048       4.99218503      -0.00034350       0.00129378      -0.00255773
C        9.83709944      11.34239681       4.99644834       0.00025582      -0.00038875      -0.00243895
C        8.60372848      12.05426780       4.99199989      -0.00018229      -0.00067209      -0.00315629
C        8.60392849      13.47842258       5.00138510      -0.00021572      -0.00093794      -0.00350133
C        7.37067413      14.19045924       5.00139078      -0.00149921      -0.00121819      -0.00361883
C        4.92487848       8.52989619       9.18957263      -0.00069574      -0.00135857      -0.00465550
O        4.92174706       8.52410920       8.01635279       0.00022986       0.00042680      -0.01924111
O        4.92795768       8.53557861      10.36154065      -0.00043169      -0.00073714       0.00487147
