101
Lattice="17.265850017958673 -0.00010359510010775204 0.0 -8.633011338229426 14.952692293502695 0.0 -0.0 0.0 15.000000722551901" Properties=species:S:1:pos:R:3:forces:R:3 energy=-26794.453456714713 free_energy=-26794.453456714713 pbc="T T T"
C        1.20724857       0.66585157       5.01377290       0.00082867      -0.00128504      -0.00626475
C       -0.02596534       1.37781749       5.01435036      -0.00124570      -0.00024965      -0.00604569
C       -0.02601109       2.80182063       5.00645687       0.00074485      -0.00025582      -0.00211113
C       -1.25919917       3.51385578       5.00508344      -0.00075719      -0.00055279      -0.00278450
C       -1.25935197       4.93786257       4.99833966      -0.00027022       0.00048234       0.00098190
C       -2.49260071       5.64999354       4.99866454      -0.00055947       0.00058493      -0.00029876
C       -2.49254615       7.07393857       4.99619056       0.00054893      -0.00031393      -0.00008382
C       -3.72577283       7.78584738       4.99741368      -0.00062632       0.00085566      -0.00048080
C       -3.72606527       9.20998179       4.99801701      -0.00000283      -0.00027794       0.00027716
C       -4.95927231       9.92226146       5.00036027      -0.00060807       0.00042115      -0.00012264
C       -4.95920782      11.34621510       5.00343751       0.00019746       0.00012933      -0.00140819
C       -6.19240217      12.05812397       5.00840889      -0.00010696      -0.00083844      -0.00330310
C       -6.19258181      13.48226018       5.01142197      -0.00008690      -0.00124776      -0.00427292
C       -7.42573921      14.19450786       5.01658354      -0.00140331      -0.00004782      -0.01102309
C        3.67371759       0.66588130       5.00185328      -0.00017406      -0.00095157      -0.00121613
C        2.44050455       1.37783281       5.00487290      -0.00045946       0.00101353      -0.00223043
C        2.44060656       2.80193723       4.99534449       0.00059804       0.00007148      -0.00107009
C        1.20727534       3.51388473       4.99650289      -0.00046048       0.00069188      -0.00034864
C        1.20743622       4.93787949       4.98578686       0.00021237       0.00086363       0.00223737
C       -0.02590496       5.64986438       4.98968633      -0.00045868       0.00095285       0.00437833
C       -0.02597548       7.07400723       4.98512364       0.00041883       0.00016404       0.00391605
C       -1.25935872       7.78587970       4.99130071       0.00018666       0.00076053       0.00244049
C       -1.25928842       9.20987163       4.99123699       0.00056719      -0.00053350       0.00170953
C       -2.49257704       9.92211401       4.99597222      -0.00052219       0.00045894       0.00073199
C       -2.49282360      11.34632048       4.99722508       0.00053608      -0.00017972       0.00131692
C       -3.72609332      12.05817344       5.00114506       0.00008742      -0.00048234       0.00033707
C       -3.72592866      13.48218402       5.00152498       0.00015607      -0.00102536      -0.00050085
C       -4.95919115      14.19442624       5.00579136       0.00020800      -0.00022754      -0.00206511
C        6.14035838       0.66580539       4.99383272       0.00073585      -0.00060190       0.00258704
C        4.90702785       1.37775185       4.99309550       0.00032344       0.00022497       0.00308995
C        4.90694316       2.80196207       4.98254101       0.00109349       0.00000154       0.00334012
C        3.67376037       3.51415212       4.98115150       0.00058518       0.00020800      -0.00046563
C        3.67416432       4.93826822       4.96348823       0.00061861       0.00051191      -0.00162365
C        2.44069413       5.64998652       4.96892332      -0.00005965       0.00116394      -0.00060447
C        2.44103551       7.07401528       4.96087337       0.00126575       0.00073971       0.00056744
C        1.20750386       7.78571721       4.97439919       0.00025068       0.00112717       0.00399858
C        1.20723087       9.20988758       4.97780013       0.00044583       0.00008150       0.00476220
C       -0.02615833       9.92211615       4.98691085      -0.00034684       0.00055767       0.00516535
C       -0.02604271      11.34615793       4.99147981       0.00130046       0.00045149       0.00355429
C       -1.25937626      12.05800858       4.99550865      -0.00051628      -0.00029491       0.00044737
C       -1.25954528      13.48226128       4.99659614       0.00141334      -0.00034324       0.00172984
C       -2.49286478      14.19447765       4.99765582      -0.00020620      -0.00016481       0.00020209
C        8.60660409       0.66579640       4.99514042       0.00074562      -0.00033836       0.00190673
C        7.37346825       1.37786045       4.99096096      -0.00079370       0.00046923       0.00361343
C        7.37338602       2.80181606       4.98354537       0.00086646       0.00001440       0.00458068
C        6.14022431       3.51410868       4.97497731       0.00038309       0.00024708       0.00126575
C        6.13975374       4.93820977       4.95946006       0.00028514       0.00077287      -0.00070474
C        4.90700565       5.65069731       4.94541639      -0.00004319       0.00066592      -0.00029285
C        4.90694548       7.07391460       4.93381377       0.00039415       0.00052451      -0.00197332
C        3.67443068       7.78545629       4.94638556       0.00022163       0.00147504      -0.00156195
C        3.67384014       9.20931175       4.96356046       0.00079833       0.00008819       0.00122025
C        2.44073341       9.92186298       4.97646826      -0.00008330       0.00026225       0.00396670
C        2.44031870      11.34600812       4.98864019       0.00053196       0.00004165       0.00298351
C        1.20713016      12.05804739       4.99309380       0.00019695      -0.00065357       0.00301822
C        1.20707255      13.48200746       4.99795891       0.00143802      -0.00053787      -0.00134983
C       -0.02605734      14.19437071       4.99690464      -0.00010233      -0.00019797       0.00052502
C       11.07353095       0.66571861       5.00205647       0.00051268      -0.00060472      -0.00212682
C        9.84008686       1.37758672       4.99655581      -0.00046177      -0.00061655       0.00140459
C        9.84004211       2.80188552       4.99229870       0.00025994      -0.00056153       0.00273951
C        8.60657080       3.51383974       4.98422738      -0.00087520       0.00050445       0.00306938
C        8.60673042       4.93789884       4.97796234       0.00050342       0.00029233       0.00368619
C        7.37323512       5.64993763       4.96440090      -0.00003034       0.00079061      -0.00036047
C        7.37294808       7.07412056       4.96138217      -0.00002700       0.00063892      -0.00077673
C        6.13950227       7.78545924       4.94762014       0.00005168       0.00080861      -0.00247443
C        6.14014165       9.20933356       4.96818503       0.00046923       0.00014758      -0.00350339
C        4.90689566       9.92174062       4.97387875      -0.00012470       0.00079267      -0.00175658
C        4.90707183      11.34596802       4.99172570       0.00043606      -0.00015581       0.00058261
C        3.67366369      12.05783965       4.99527796       0.00000977      -0.00064483       0.00046460
C        3.67368943      13.48214119       5.00363535       0.00002237      -0.00075282      -0.00306835
C        2.44019748      14.19431080       5.00200657       0.00024040      -0.00007199      -0.00354581
C       13.53980243       0.66568751       5.01086900      -0.00049134      -0.00068726      -0.00362166
C       12.30666952       1.37772167       5.00531397       0.00029773      -0.00031882      -0.00220524
C       12.30664940       2.80160977       5.00202938       0.00001440      -0.00028719      -0.00017612
C       11.07355154       3.51375896       4.99531267      -0.00031856      -0.00013113       0.00215664
C       11.07312926       4.93778440       4.99239589       0.00019438      -0.00034401       0.00287809
C        9.83996866       5.64994685       4.98474382      -0.00046280       0.00130432       0.00606009
C        9.83985125       7.07384280       4.98578372       0.00002340      -0.00013087       0.00528336
C        8.60655714       7.78574533       4.97837374       0.00014321       0.00034299       0.00252765
C        8.60652593       9.20976599       4.98776233      -0.00040392       0.00004885       0.00206305
C        7.37331621       9.92188757       4.98666256      -0.00027254       0.00030776      -0.00007739
C        7.37336129      11.34592569       5.00135651      -0.00007173      -0.00052271      -0.00007713
C        6.14028339      12.05796663       5.00265443      -0.00079370      -0.00021674       0.00095491
C        6.14016271      13.48200318       5.01228524      -0.00011236      -0.00167379      -0.00587728
C        4.90707229      14.19432885       5.01003171      -0.00008690       0.00011339      -0.00553199
C       16.00661418       0.66576429       5.01769748       0.00068417      -0.00152595      -0.01070556
C       14.77320625       1.37758357       5.01344357      -0.00060909      -0.00078881      -0.00460896
C       14.77325591       2.80179218       5.00857849      -0.00013704       0.00004757      -0.00416802
C       13.53980115       3.51372749       5.00391325      -0.00027254      -0.00034093      -0.00263769
C       13.54010692       4.93772836       5.00023459       0.00008408       0.00037487      -0.00179000
C       12.30665422       5.64971871       4.99632773      -0.00079164       0.00104824       0.00167122
C       12.30658286       7.07399616       4.99617321      -0.00008305       0.00014501       0.00090503
C       11.07309664       7.78575874       4.99376000      -0.00153803       0.00079164       0.00175169
C       11.07345956       9.20981969       4.99783587      -0.00000360       0.00033784      -0.00043606
C        9.83998902       9.92196510       4.99836962      -0.00086286      -0.00043657      -0.00034016
C        9.84005841      11.34621089       5.00684584       0.00005631       0.00011827      -0.00427729
C        8.60663098      12.05792151       5.01059023      -0.00170567      -0.00096931      -0.00580761
C        8.60685411      13.48213664       5.01791675       0.00049854      -0.00187099      -0.01196437
C        7.37343550      14.19428534       5.01853057      -0.00159820      -0.00037512      -0.01225773
C        5.02190930       7.10301362       9.19624561      -0.00232299       0.00120945       0.02139364
O        5.00124945       7.08069091       8.02079291       0.00068623      -0.00089294       0.02398839
O        5.04259167       7.12559098      10.37027789      -0.00002314      -0.00072119      -0.00605289
