101
Lattice="17.265850017958673 -0.00010359510010775204 0.0 -8.633011338229426 14.952692293502695 0.0 -0.0 0.0 15.000000722551901" Properties=species:S:1:pos:R:3:forces:R:3 energy=-26089.713349247806 free_energy=-26089.713349247806 pbc="T T T"
C        1.21009954       0.67140675       4.97479383      -0.00422818      -0.00939841       0.00258319
C       -0.02307063       1.38336408       4.97487498      -0.00598836      -0.00802981       0.00271560
C       -0.02293423       2.80725283       4.97256653      -0.00390576      -0.00476091       0.00135703
C       -1.25618728       3.51887002       4.97330033      -0.00693761      -0.00438013       0.00490566
C       -1.25611821       4.94259992       4.97256308      -0.00635422      -0.00100839       0.00391091
C       -2.48949212       5.65431207       4.97575208      -0.00665247       0.00209776       0.00042809
C       -2.48969586       7.07819047       4.97722658      -0.00517177       0.00346662      -0.00221372
C       -3.72304042       7.79014952       4.98000811      -0.00535355       0.00371653      -0.00910016
C       -3.72326660       9.21431798       4.97955402      -0.00241632       0.00065949      -0.00694275
C       -4.95652828       9.92655501       4.97866138      -0.00587111       0.00290997       0.00237081
C       -4.95664224      11.35091167       4.97982855      -0.00317094      -0.00258756      -0.00816608
C       -6.18986248      12.06326956       4.98018250      -0.00379906      -0.00322134      -0.00794394
C       -6.18989356      13.48764866       4.97850426      -0.00232839      -0.00731016      -0.00188076
C       -7.42294978      14.19994094       4.97780154      -0.00584592      -0.00613671       0.00045997
C        3.67603932       0.67125826       4.97285660      -0.00046691      -0.00854198       0.00537438
C        2.44313677       1.38347458       4.97231445      -0.00210342      -0.00587266       0.00145756
C        2.44312641       2.80738923       4.97001119      -0.00081195      -0.00714484      -0.00260581
C        1.21022041       3.51920843       4.97016485      -0.00562866      -0.00436959      -0.00249783
C        1.21033263       4.94281229       4.96740059      -0.00539057       0.00038567      -0.00466064
C       -0.02289970       5.65442085       4.96964860      -0.00292206       0.00126010      -0.00054970
C       -0.02332789       7.07810068       4.96978328      -0.00247726       0.00547954       0.00400552
C       -1.25648943       7.79010808       4.97451930      -0.00461899       0.00417547       0.00120405
C       -1.25679158       9.21411597       4.97604733      -0.00236464       0.00492161      -0.00091711
C       -2.49003772       9.92640480       4.97743205      -0.00269632       0.00292977       0.00014038
C       -2.49042275      11.35066822       4.97591783       0.00373041       0.00089680       0.01109817
C       -3.72349624      12.06309517       4.97821592      -0.00390165      -0.00057258      -0.00306090
C       -3.72376386      13.48745874       4.97737507       0.00099245      -0.00838565      -0.00304624
C       -4.95679245      14.19980109       4.97626660      -0.00281099      -0.00364608       0.00184759
C        6.14201363       0.67087669       4.97547755       0.00532064      -0.00495632       0.00016147
C        4.90897641       1.38316034       4.97211244       0.00258422      -0.00638842       0.00412739
C        4.90882619       2.80704564       4.96910646       0.00268295      -0.00192936      -0.00036998
C        3.67595817       3.51926022       4.96698276       0.00297554      -0.00444415      -0.00470795
C        3.67587530       4.94271388       4.96126603       0.00432794       0.00053170      -0.00039055
C        2.44316440       5.65443293       4.96164933      -0.00173164       0.00406389      -0.00069163
C        2.44264815       7.07800227       4.96045799       0.00039724       0.00273925       0.00623184
C        1.20973351       7.78998549       4.96673240      -0.00102510       0.00804061       0.00833629
C        1.20958675       9.21409179       4.97267703       0.00219161       0.00386360      -0.00200135
C       -0.02373536       9.92619243       4.97613020      -0.00075565       0.00856357      -0.00329538
C       -0.02409104      11.35046621       4.97741133       0.00532553       0.00082892      -0.00164191
C       -1.25727330      12.06279129       4.97566748      -0.00223506      -0.00058673       0.01252667
C       -1.25763934      13.48707371       4.97744931       0.00445084      -0.00208722       0.00073122
C       -2.49078361      14.19948167       4.97701249       0.00304187      -0.00426135      -0.00286447
C        8.60845585       0.67048303       4.97994250       0.00648664      -0.00314240      -0.00920918
C        7.37521834       1.38260956       4.97707810       0.00586340      -0.00295188      -0.00273231
C        7.37516827       2.80652939       4.97422578       0.00611203      -0.00186225       0.00069060
C        6.14198773       3.51846600       4.96919796       0.00622721       0.00078856       0.00393070
C        6.14201363       4.94224252       4.96582076       0.00717004       0.00370959       0.00869830
C        4.90899713       5.65399438       4.95957743       0.00198926       0.00210548       0.00728728
C        4.90952201       7.07807824       4.95908881       0.00399138       0.00733304      -0.00368156
C        3.67571300       7.79045858       4.95961542       0.00344502       0.00737984      -0.00430711
C        3.67614810       9.21472545       4.96658219       0.00325887       0.00484961      -0.00724768
C        2.44277937       9.92632365       4.97364910       0.00221860       0.00820208      -0.00886594
C        2.44251693      11.35050764       4.97804499       0.00467272       0.00418807      -0.00951591
C        1.20912230      12.06255303       4.97894972       0.00371396       0.00434954      -0.00727854
C        1.20890129      13.48684580       4.97825736       0.00664142      -0.00148044       0.00361600
C       -0.02439147      14.19903276       4.97931057       0.00395179       0.00035276      -0.00565926
C       11.07537287       0.67042778       4.97876843       0.00612514      -0.00364711       0.00258139
C        9.84193162       1.38234539       4.97950222       0.00235899      -0.00189953      -0.00684633
C        9.84202313       2.80637745       4.97729565       0.00397955      -0.00070705       0.00030365
C        8.60855081       3.51823981       4.97577107       0.00570399       0.00074639      -0.00104850
C        8.60873728       4.94211821       4.97567093       0.00794034       0.00413279      -0.00345531
C        7.37540999       5.65413769       4.97182583       0.00196818       0.00472877      -0.00193218
C        7.37566552       7.07823190       4.97264768       0.00578755       0.00676226      -0.00842113
C        6.14275606       7.79058116       4.96579487       0.00186174       0.00617502      -0.00674889
C        6.14247463       9.21450963       4.96763195       0.00433822       0.00528979       0.00132720
C        4.90942704       9.92643415       4.96802734       0.00171698       0.00681265       0.00112820
C        4.90931654      11.35052664       4.97326753       0.00295394      -0.00038798       0.00117114
C        3.67590810      12.06251159       4.97663264       0.00212939       0.00395101      -0.00331672
C        3.67584076      13.48687688       4.97709709       0.00400732      -0.00099887       0.00778607
C        2.44232873      14.19891535       4.97706256       0.00289918      -0.00022291       0.01467766
C       13.54249018       0.67067468       4.98048120      -0.00038258      -0.00492521      -0.00787143
C       12.30895742       1.38249388       4.97999085      -0.00036895      -0.00377181      -0.00798173
C       12.30915426       2.80652766       4.97831779       0.00167456      -0.00363451      -0.00267806
C       11.07565085       3.51818284       4.97587122      -0.00079550       0.00387877       0.01147689
C       11.07581315       4.94218900       4.97566921       0.00088960      -0.00211010       0.01215052
C        9.84235118       5.65398057       4.97716443      -0.00192061       0.00524197      -0.00223583
C        9.84244960       7.07802817       4.97849908       0.00191444       0.00582663      -0.00756856
C        8.60913267       7.79015297       4.97714889       0.00140819       0.00621513      -0.00892250
C        8.60905324       9.21431798       4.97573136       0.00239704       0.00436470      -0.00249217
C        7.37577948       9.92650148       4.97261660      -0.00193913       0.00264721       0.00179514
C        7.37603674      11.35080980       4.97460563      -0.00291846       0.00038875       0.00628172
C        6.14264038      12.06291734       4.97487843       0.00165476      -0.00228391       0.00602409
C        6.14281649      13.48725500       4.97855260       0.00017612      -0.00391450      -0.00323136
C        4.90936661      14.19917434       4.97905504      -0.00157300      -0.00277988      -0.00272511
C       16.00945037       0.67113740       4.97792240      -0.00232942      -0.00789020       0.00101096
C       14.77604884       1.38284265       4.97878569      -0.00492598      -0.00546745      -0.00185736
C       14.77623185       2.80682291       4.97667753      -0.00165682      -0.00374970       0.00117731
C       13.54280960       3.51849707       4.97767722      -0.00721914      -0.00315860      -0.00332315
C       13.54295809       4.94232194       4.97725076      -0.00474780       0.00054585      -0.00279222
C       12.30943914       5.65405481       4.97755982      -0.00387825       0.00298017       0.00064715
C       12.30939252       7.07808342       4.97934510      -0.00102510       0.00344296      -0.00587189
C       11.07598754       7.79004938       4.97804844      -0.00397184       0.00498614       0.00320925
C       11.07595473       9.21428517       4.97673278      -0.00108218       0.00205945       0.01454499
C        9.84257737       9.92651012       4.97645653      -0.00260684       0.00294571       0.00812083
C        9.84268096      11.35094447       4.97858713      -0.00166350      -0.00308481      -0.00257625
C        8.60942273      12.06317114       4.97822455      -0.00341468      -0.00189902      -0.00315397
C        8.60964201      13.48761413       4.97938136      -0.00398238      -0.00846279      -0.00524916
C        7.37629573      14.19967850       4.97946424      -0.00540806      -0.00758707      -0.00496120
C        4.30521898       7.43871523       8.15002854      -0.00524479      -0.00647815       0.01270613
O        3.72502772       6.41821371       8.15008897      -0.00854223      -0.01472728       0.01513968
O        4.88531011       8.45905617       8.16122371       0.01391224       0.02433498       0.01185304
