101
Lattice="17.265850017958673 -0.00010359510010775204 0.0 -8.633011338229426 14.952692293502695 0.0 -0.0 0.0 15.000000722551901" Properties=species:S:1:pos:R:3:forces:R:3 energy=-26237.11560459392 free_energy=-26237.11560459392 pbc="T T T"
C        1.20437750       0.66191236       5.00656187      -0.00155500       0.00319974      -0.00088857
C       -0.02896391       1.37397004       5.00561165       0.00459045       0.00048748      -0.00017972
C       -0.02905889       2.79805738       5.00289842       0.00116934      -0.00185248      -0.00097059
C       -1.26241199       3.51004450       5.00280379       0.00516817       0.00035096       0.00077570
C       -1.26235743       4.93409206       5.00298966       0.00076516       0.00209082      -0.00123979
C       -2.49565736       5.64619649       5.00541459       0.00266726      -0.00308250      -0.00003471
C       -2.49562855       7.07023258       5.00639935       0.00161825      -0.00007276      -0.00137297
C       -3.72896719       7.78226692       5.00674922       0.00179746      -0.00060755      -0.00001466
C       -3.72894844       9.20633361       5.00483459       0.00140099       0.00059675       0.00158431
C       -4.96222451       9.91841575       5.00356649       0.00150872      -0.00339591       0.00199055
C       -4.96216163      11.34244341       5.00247120       0.00088060      -0.00028771       0.00346585
C       -6.19545417      12.05441431       5.00379979       0.00157172       0.00249757       0.00212065
C       -6.19555111      13.47853529       5.00524665       0.00301436      -0.00235822       0.00180106
C       -7.42883008      14.19058906       5.00720971       0.00518951      -0.00216333      -0.00031162
C        3.67094381       0.66180739       5.00302238       0.00059135       0.00388365      -0.00109118
C        2.43773074       1.37392440       5.00337794      -0.00404306       0.00063146      -0.00227748
C        2.43759141       2.79804757       4.99655123       0.00370316      -0.00072634      -0.00330824
C        1.20431033       3.50999562       4.99741326      -0.00238033       0.00166736      -0.00270943
C        1.20441638       4.93406810       4.99069690       0.00087752       0.00164242      -0.00318148
C       -0.02895392       5.64603136       4.99756685      -0.00055176      -0.00068803      -0.00352987
C       -0.02880975       7.07009318       4.99659371      -0.00274979      -0.00035995      -0.00426520
C       -1.26221502       7.78210612       5.00330862       0.00071991       0.00118296      -0.00320771
C       -1.26220815       9.20617407       5.00261845      -0.00186945       0.00050111      -0.00102613
C       -2.49553230       9.91826779       5.00349877      -0.00129712      -0.00161568       0.00217695
C       -2.49551841      11.34232392       5.00214455      -0.00035790       0.00036150       0.00378389
C       -3.72878410      12.05436287       5.00179599      -0.00371087       0.00119016       0.00508204
C       -3.72893323      13.47842669       5.00253263       0.00289121      -0.00009179       0.00383069
C       -4.96216400      14.19050077       5.00396107      -0.00319820      -0.00208491       0.00231682
C        6.13747936       0.66184939       5.00310244      -0.00157891       0.00138582      -0.00108603
C        4.90420212       1.37389885       4.99994396      -0.00174629       0.00223609      -0.00272126
C        4.90402528       2.79804164       4.99019111       0.00181340      -0.00100402      -0.00277705
C        3.67085744       3.51023408       4.98543470      -0.00034350       0.00217824      -0.00232633
C        3.67107023       4.93436641       4.96802270       0.00306167       0.00056256       0.00141282
C        2.43772562       5.64610940       4.97404652      -0.00023628       0.00329410       0.00032293
C        2.43808484       7.07021062       4.96750381      -0.00065743      -0.00330361       0.00103307
C        1.20455232       7.78197005       4.98502727       0.00456088       0.00432562      -0.00306681
C        1.20443016       9.20610284       4.98953921      -0.00286292       0.00002520      -0.00366202
C       -0.02895440       9.91818767       4.99927869       0.00437268      -0.00100479      -0.00276702
C       -0.02890884      11.34226343       5.00230277      -0.00216255       0.00030982      -0.00068237
C       -1.26224419      12.05432307       5.00330322       0.00120071       0.00186405       0.00267832
C       -1.26235643      13.47845425       5.00485741       0.00039544      -0.00161645       0.00172521
C       -2.49566558      14.19049150       5.00382084       0.00214919      -0.00034813       0.00224072
C        8.60402604       0.66183601       5.00655010      -0.00166248       0.00288426      -0.00128349
C        7.37072734       1.37394160       5.00352276      -0.00201369       0.00001260      -0.00305293
C        7.37045507       2.79806774       4.99664942       0.00129069       0.00055999      -0.00386077
C        6.13718043       3.51029727       4.98536310      -0.00002160      -0.00112383      -0.00295703
C        6.13692855       4.93437622       4.96766280       0.00154318       0.00296988       0.00065229
C        4.90404521       5.64676233       4.95075443      -0.00284081       0.00018615       0.00408291
C        4.90402272       7.07011156       4.93581775       0.00334166      -0.00282616       0.00698594
C        3.67144390       7.78170295       4.94977678      -0.00236593       0.00246286       0.00418498
C        3.67101993       9.20557776       4.96675749       0.00127938       0.00097316       0.00128529
C        2.43784807       9.91797861       4.98452269       0.00033707      -0.00507896      -0.00283053
C        2.43771012      11.34205228       4.99600846      -0.00142285       0.00374353      -0.00402172
C        1.20439126      12.05423776       5.00285346       0.00019618      -0.00207462      -0.00260504
C        1.20422162      13.47834333       5.00619331       0.00112409       0.00017612      -0.00087520
C       -0.02905479      14.19046999       5.00686808       0.00136448      -0.00255002       0.00011467
C       11.07063701       0.66181503       5.00502815      -0.00396798       0.00039184       0.00199132
C        9.83730079       1.37387500       5.00562852      -0.00031008       0.00139611      -0.00007739
C        9.83709181       2.79802147       5.00308791      -0.00156349      -0.00242506      -0.00142979
C        8.60373494       3.51006291       4.99749107       0.00126627       0.00105852      -0.00354607
C        8.60362214       4.93418512       4.99024117      -0.00286549      -0.00053685      -0.00397724
C        7.37028136       5.64622698       4.97313313       0.00126473       0.00052219      -0.00006248
C        7.36997214       7.07033267       4.96588098      -0.00317454      -0.00508924       0.00108321
C        6.13670496       7.78175282       4.94799051      -0.00114440       0.00429606       0.00509490
C        6.13714200       9.20564071       4.96534836       0.00041729      -0.00420478       0.00258987
C        4.90411575       9.91789068       4.97249727      -0.00229111      -0.00062812       0.00106804
C        4.90415234      11.34201354       4.98987536      -0.00097239      -0.00079087      -0.00323393
C        3.67092157      12.05421573       4.99714249      -0.00038001      -0.00163368      -0.00365457
C        3.67078364      13.47833722       5.00299670      -0.00074768      -0.00007816      -0.00106495
C        2.43746807      14.19043093       5.00544468       0.00324525      -0.00217464       0.00004319
C       13.53711293       0.66177848       5.00264899       0.00052322       0.00294931       0.00397878
C       12.30384304       1.37387404       5.00266806      -0.00108423       0.00087186       0.00428500
C       12.30363732       2.79796343       5.00228489       0.00286549      -0.00204531       0.00414436
C       11.07034122       3.51001215       5.00280558       0.00080784       0.00079241       0.00067774
C       11.07026895       4.93408053       5.00268191       0.00143673       0.00057747      -0.00101559
C        9.83692800       5.64613738       4.99702659       0.00099425       0.00044711      -0.00378441
C        9.83683442       7.07020965       4.99573124       0.00113077      -0.00237133      -0.00412534
C        8.60340786       7.78209763       4.98369368       0.00113643       0.00181443      -0.00232505
C        8.60365584       9.20616194       4.98839275       0.00301796      -0.00018563      -0.00278630
C        7.37031674       9.91797923       4.98334511      -0.00190596      -0.00173035      -0.00145730
C        7.37049692      11.34209812       4.99557825       0.00349927       0.00002828      -0.00322751
C        6.13735524      12.05423998       4.99698532      -0.00334732      -0.00113951      -0.00330361
C        6.13723161      13.47832276       5.00321150       0.00293569       0.00114594      -0.00149998
C        4.90400067      14.19049143       5.00319215       0.00118425      -0.00552427       0.00048337
C       16.00379613       0.66168402       5.00528290      -0.00686613       0.00273951       0.00175401
C       14.77044674       1.37372506       5.00273280      -0.00095285       0.00035198       0.00424772
C       14.77031927       2.79782046       5.00230014      -0.00235410      -0.00146681       0.00414899
C       13.53699670       3.50985449       5.00234354      -0.00104927       0.00083098       0.00445855
C       13.53700803       4.93391014       5.00471426      -0.00130972       0.00305601       0.00230731
C       12.30369345       5.64598222       5.00516302      -0.00221243      -0.00107164       0.00007585
C       12.30365880       7.07004811       5.00609107      -0.00170644       0.00082044      -0.00113823
C       11.07030856       7.78205533       5.00276063      -0.00234973       0.00083124      -0.00308969
C       11.07040028       9.20611960       5.00234293      -0.00124699       0.00204454      -0.00126010
C        9.83711400       9.91815185       4.99887858      -0.00391990      -0.00250348      -0.00285727
C        9.83723050      11.34219651       5.00249093      -0.00346199      -0.00015761      -0.00111123
C        8.60390178      12.05415099       5.00294789      -0.00314909       0.00111329      -0.00267960
C        8.60389055      13.47827609       5.00662651      -0.00395359      -0.00072119      -0.00145987
C        7.37056365      14.19035375       5.00588896       0.00145936      -0.00326504      -0.00031907
C        4.96263829       7.17924610       9.15387243       0.00210522      -0.00031110      -0.00130278
O        4.96309931       7.18703129       7.98053172       0.00218415       0.00231168       0.01676694
O        4.96227474       7.17144792      10.32568475       0.00028591      -0.00045277       0.01112748
