48
Lattice="8.315575849598094 0.0 0.0 4.157787924799047 7.20149657514819 0.0 0.0 0.0 19.999999365264614" Properties=species:S:1:pos:R:3:forces:R:3 energy=-278732.7646036925 free_energy=-278732.7646036925 pbc="T T T"
Pt       3.00284680       1.20024997       7.73678695       0.00056590      -0.08245965      -0.42452770
Pt       5.77470538       1.20024997       7.73678695      -0.00086929      -0.08299367      -0.42476655
Pt       8.54656396       1.20024997       7.73678695      -0.00201343      -0.08230770      -0.42440403
Pt       4.38877609       3.60074992       7.73678695      -0.00141873      -0.08284737      -0.42227850
Pt       7.16063467       3.60074992       7.73678695      -0.00003394      -0.08266045      -0.42218671
Pt       9.93249325       3.60074992       7.73678695      -0.00088600      -0.08122809      -0.42215148
Pt       5.77470538       6.00124987       7.73678695      -0.00061141      -0.08315462      -0.42347303
Pt       8.54656396       6.00124987       7.73678695      -0.00085232      -0.08110108      -0.42631641
Pt      11.31842254       6.00124987       7.73678695      -0.00091660      -0.08100878      -0.42632978
Pt       1.61691751       2.00041662      10.00000000       0.00115468       0.08186958       0.42500618
Pt       4.38877609       2.00041662      10.00000000      -0.00078059       0.08181739       0.42029412
Pt       7.16063467       2.00041662      10.00000000       0.00312286       0.08193694       0.42029566
Pt       3.00284680       4.40091657      10.00000000      -0.00058184       0.08370278       0.42624082
Pt       5.77470538       4.40091657      10.00000000       0.00125367       0.08309523       0.42350517
Pt       8.54656396       4.40091657      10.00000000       0.00276985       0.08370921       0.42619994
Pt       4.38877609       6.80141652      10.00000000       0.00207102       0.07958824       0.42785882
Pt       7.16063467       6.80141652      10.00000000       0.00031985       0.07969597       0.42763385
Pt       9.93249325       6.80141652      10.00000000       0.00096571       0.08050972       0.42806631
Pt       1.61984641       0.69626695      12.35859974      -0.00191804      -0.00157866       0.00232196
Pt       4.39132560       0.69637969      12.35815027      -0.00073919      -0.00028128       0.00007739
Pt       7.16386471       0.69631487      12.35812064      -0.00131795       0.00039158       0.00045457
Pt       3.00539408       3.09688740      12.35808485      -0.00088857      -0.00234485       0.00320591
Pt       5.77754521       3.09703867      12.35773572      -0.00063249       0.00231014      -0.00147967
Pt       8.54974976       3.09692288      12.35809320      -0.00179180      -0.00276805       0.00277808
Pt       4.39147964       5.49745501      12.35925032      -0.00082738       0.00115057      -0.00157043
Pt       7.16358144       5.49755742      12.35923203      -0.00081787      -0.00007353      -0.00167996
Pt       9.93533053       5.49775500      12.35905985      -0.00092817      -0.00374250       0.00003702
C        1.61938101       1.42823648      14.41682427       0.00022934      -0.00099759       0.00508127
C        3.00504837       2.25509995      14.42980683      -0.00085335       0.00144650       0.00128607
C        3.00515052       3.82735728      14.41660711      -0.00035584      -0.00095337       0.00349439
C        4.39070811       4.65511285      14.43162142      -0.00057156       0.00298197      -0.00379135
C        4.39118716       6.22899404      14.41844350      -0.00053428      -0.00162957      -0.00132823
C        5.77720135       7.05602319      14.43320114       0.00022420       0.00291897      -0.00295034
C        4.39028862       1.42700359      14.41429553       0.00052990      -0.00240038      -0.00367334
C        5.77719832       2.25305273      14.42686479       0.00034427       0.00208311      -0.00876335
C        5.77711882       3.82933943      14.41340152       0.00078162       0.00078521      -0.00532758
C        7.16366078       4.65510216      14.43151498       0.00126447       0.00313495      -0.00319974
C        7.16307312       6.22894990      14.41839608       0.00174886      -0.00127321      -0.00104284
C        8.54876612       7.05519483      14.43314731       0.00074125       0.00113848      -0.00042500
C        7.16399015       1.42703431      14.41431658       0.00066720      -0.00264001      -0.00363194
C        8.54937729       2.25510818      14.42977206       0.00095285       0.00145473       0.00188282
C        8.54913099       3.82737308      14.41653218       0.00117859      -0.00116548       0.00397955
C        9.93500150       4.65423339      14.43199391      -0.00000360       0.00145936       0.00422998
C        9.93493509       6.22822568      14.41777874       0.00037230      -0.00304239       0.00122359
C       11.32122874       7.05523400      14.43317031      -0.00043272       0.00072762      -0.00048311
C        5.77217375       2.82418541      17.54097329      -0.00213196       0.00293054      -0.00367925
O        6.94664329       2.82721839      17.53839108      -0.00025094       0.00184348       0.00204917
O        4.59767745       2.82144584      17.53620498       0.00270172       0.00196972       0.00225666
