48
Lattice="8.315575849598094 0.0 0.0 4.157787924799047 7.20149657514819 0.0 0.0 0.0 19.999999365264614" Properties=species:S:1:pos:R:3:forces:R:3 energy=-285068.27363321395 free_energy=-285068.27363321395 pbc="T T T"
Pt       3.00284674       1.20025026       5.74156585       0.00184502      -0.06408732      -1.67718613
Pt       5.77470508       1.20025026       5.74156585      -0.00096211      -0.06453855      -1.67675830
Pt       8.54656425       1.20025026       5.74156585      -0.00338923      -0.06614651      -1.67641403
Pt       4.38877633       3.60074995       5.74156585      -0.00023706      -0.06669956      -1.67736585
Pt       7.16063467       3.60074995       5.74156585      -0.00308430      -0.06697467      -1.67648165
Pt       9.93249301       3.60074995       5.74156585       0.00092791      -0.06555105      -1.67659246
Pt       5.77470508       6.00124964       5.74156585      -0.00217361      -0.07219812      -1.67654798
Pt       8.54656425       6.00124964       5.74156585       0.00016404      -0.06926963      -1.67581650
Pt      11.31842259       6.00124964       5.74156585      -0.00024554      -0.06988773      -1.67688531
Pt       1.61691716       2.00041655       8.00477954       0.00765186       0.06500263       1.67612529
Pt       4.38877633       2.00041655       8.00477954       0.00688053       0.06260431       1.67489887
Pt       7.16063467       2.00041655       8.00477954       0.00616936       0.06330802       1.67272938
Pt       3.00284674       4.40091624       8.00477954       0.00623878       0.06290384       1.67442785
Pt       5.77470508       4.40091624       8.00477954       0.00678566       0.06555336       1.66491245
Pt       8.54656425       4.40091624       8.00477954       0.00736698       0.06397316       1.67338861
Pt       4.38877633       6.80141676       8.00477954       0.00466809       0.06210500       1.67278697
Pt       7.16063467       6.80141676       8.00477954       0.00920069       0.06072097       1.67841743
Pt       9.93249301       6.80141676       8.00477954       0.00660748       0.06146916       1.67851307
Pt       1.63840627       0.73865847      10.58913911       0.00191290       0.00514658       0.00212039
Pt       4.40994695       0.73837158      10.58992909       0.00529133       0.00236439      -0.00050316
Pt       7.18271917       0.73683652      10.58824684      -0.00225152       0.01064077       0.00208876
Pt       3.02438907       3.13877813      10.58874245       0.00227594       0.00836097       0.00139457
Pt       5.79672473       3.13682397      10.58312861      -0.00106367       0.01297996       0.01222997
Pt       8.56790119       3.13967455      10.58786516       0.00273668       0.00079910       0.00446729
Pt       4.41119928       5.53852360      10.58680576      -0.00497688       0.00655966       0.00562480
Pt       7.18181278       5.53935516      10.58955488       0.00537515       0.00697489       0.00014758
Pt       9.95375094       5.53883460      10.58906676       0.00393970       0.01087397      -0.00029413
C        1.61729884       1.54150403      14.30643268      -0.00091171      -0.00646041      -0.01465066
C        3.00407662       2.34217757      14.30472383      -0.01757760      -0.00592819       0.00774313
C        3.00407911       3.94191558      14.30385070      -0.01615321       0.00725128       0.01337359
C        4.38754978       4.74252924      14.30253684       0.00055716       0.00415207      -0.01328155
C        4.38790153       6.34161863      14.30266490       0.00030288       0.00379932       0.02124014
C        5.77540775       7.14388128      14.30492507      -0.00877620      -0.00693272      -0.00930662
C        4.38825328       1.54217260      14.30388063      -0.00104001      -0.01542636       0.00693735
C        5.77576781       2.34210106      14.30325031      -0.00500722      -0.00718906      -0.01713846
C        5.77613536       3.94152059      14.30172025      -0.01614704       0.00469972      -0.01498850
C        7.16141384       4.74067071      14.30314637      -0.00414308       0.01275859      -0.00788326
C        7.16119015       6.34349380      14.30291603      -0.00414488      -0.00945523       0.02155921
C        8.54587988       7.14241358      14.30386400      -0.00006402       0.00271894       0.01145761
C        7.16206994       1.54185495      14.30339833      -0.00946012      -0.01235518       0.00120713
C        8.54575182       2.34197134      14.30488682       0.00936627      -0.00784984      -0.00391193
C        8.54606864       3.94034310      14.30400204       0.00830646       0.00590917       0.01156122
C        9.93279486       4.74135259      14.30618405      -0.00195892       0.00899938      -0.01548087
C        9.93264019       6.34111887      14.30563688       0.00166942       0.00023911      -0.01183839
C       11.31897724       7.14211505      14.30379914      -0.00843990      -0.00578190       0.00912870
C        5.93106784       3.36625404      17.58983116      -0.00352524       0.00443670      -0.00688927
O        7.06936374       3.07647285      17.54826824       0.01096498      -0.00005759       0.00546848
O        4.79281186       3.65660484      17.62806784      -0.00147196      -0.00451537       0.00226463
