179
Lattice="10.720992125991367 0.0 0.0 -5.360496062995684 9.284647205911675 0.0 0.0 0.0 34.99999747733031" Properties=species:S:1:pos:R:3:forces:R:3 energy=-73584.27847665854 free_energy=-73584.27847665854 pbc="T T T"
Si       1.78683208      -0.00000002       5.05623624       0.00021829      -0.00009359      -0.02833510
Si       0.89341603       1.54744198      12.64850174      -0.00217310       0.00160771      -0.10831441
Si       0.89341603       1.54744198       2.52836107       0.00025968       0.00026251       0.24338525
Si       1.78683208      -0.00000002      10.12062657       0.00037718       0.00024451      -0.08197654
Si      -0.01904942       0.01046881      15.16868658      -0.00191521       0.00116008       0.00340208
Si       0.00000000       0.00000000       7.58805938      -0.00034067       0.00018023      -0.10071037
C        0.00000000       0.00000000       5.68435955      -0.00005991       0.00004654       0.09170045
C        0.00000000       0.00000000      13.27662505      -0.01473962       0.00830569      -0.06547391
C        1.78683208      -0.00000002       3.15844319       0.00175195      -0.00019977       0.09116129
C        0.89341603       1.54744198      10.75070869      -0.00053505       0.00084846       0.03681177
C        0.89341603       1.54744198       0.63055283       0.00251454       0.00392247      -0.20055787
C        1.78683208      -0.00000002       8.22281833       0.00181597      -0.00005425       0.10869390
Si       1.78683208       3.09488391       5.05623624      -0.00006736       0.00033347      -0.02836930
Si       3.57366413       0.00000002      12.64850174       0.00255028      -0.00133106      -0.10829461
Si       3.57366413       0.00000002       2.52836107       0.00030416       0.00009744       0.24342716
Si       1.78683208       3.09488391      10.12062657       0.00243226       0.00023166      -0.08061488
Si      -0.00560435       3.08466683      15.16864672      -0.00076670      -0.00136423       0.00331287
Si       0.00000000       3.09488393       7.58805938      -0.00001543       0.00011699      -0.10110220
C        0.00000000       3.09488393       5.68435955      -0.00002391       0.00209185       0.09166137
C        0.00000000       3.09488393      13.27662505      -0.00379983      -0.00542863      -0.06656226
C        1.78683208       3.09488391       3.15844319       0.00082095       0.00189799       0.09100805
C        3.57366413       0.00000002      10.75070869       0.00192576      -0.00167147       0.03696372
C        3.57366413       0.00000002       0.63055283       0.00434619       0.00027099      -0.20104150
C        1.78683208       3.09488391       8.22281833       0.00031805       0.00164114       0.10802181
Si      -0.89341603       1.54744195       5.05623624      -0.00004705       0.00034299      -0.02832353
Si      -1.78683208       3.09488395      12.64850174       0.00194864      -0.00011930      -0.10821593
Si      -1.78683208       3.09488395       2.52836107      -0.00022214       0.00019026       0.24341765
Si      -0.89341603       1.54744195      10.12062657       0.00063198      -0.00128401      -0.07967540
Si       2.68719773       1.55956611      15.16950336       0.00093408       0.00149510       0.00238136
Si       2.68024811       1.54744196       7.58805938       0.00037924       0.00041678      -0.10058156
C        2.68024811       1.54744196       5.68435955       0.00185351       0.00110763       0.09182566
C        2.68024811       1.54744196      13.27662505       0.00776730       0.01105626      -0.04346347
C       -0.89341603       1.54744195       3.15844319      -0.00072788       0.00159126       0.09124897
C       -1.78683208       3.09488395      10.75070869      -0.00055716       0.00445444       0.03692001
C       -1.78683208       3.09488395       0.63055283      -0.00246132       0.00373736      -0.20098005
C       -0.89341603       1.54744195       8.22281833      -0.00121150       0.00204248       0.10774645
C       -0.00057819      -0.00044842      18.60803226      -0.00027331       0.00027177       0.00549393
C        1.34024357       0.77382278      18.61026794      -0.00042655       0.00077570      -0.00347279
C       -1.34158183       2.32049113      18.60946823       0.00083767       0.00022574       0.00590968
C       -0.00047670       3.09455241      18.60857991       0.00048028       0.00055330      -0.00115802
C        2.67959031       0.00052147      18.61027744      -0.00031856       0.00050856      -0.00381012
C        4.01870343       0.77422439      18.60943218       0.00058750      -0.00034144      -0.00187459
C        1.34061389       2.32041756      18.60946124      -0.00051473       0.00084306      -0.00220601
C        2.67981405       3.09382007      18.60711897       0.00053505       0.00056873       0.00642313
Si      -0.89341603       4.64232588       5.05623624       0.00013524       0.00005091      -0.02838652
Si      -1.78683208       6.18976788      12.64850174       0.00017843       0.00081247      -0.13985824
Si      -1.78683208       6.18976788       2.52836107       0.00027408      -0.00002803       0.24323047
Si      -0.89341603       4.64232588      10.12062657      -0.00307350       0.00029259      -0.08082520
Si      -2.67393890       4.65354611      15.16879195       0.00042089       0.00092020       0.00332084
Si      -2.68024811       4.64232589       7.58805938       0.00014835       0.00013781      -0.10044477
C       -2.68024811       4.64232589       5.68435955      -0.00000051       0.00000489       0.09214217
C       -2.68024811       4.64232589      13.27662505       0.00491209       0.00872324      -0.06455140
C       -0.89341603       4.64232588       3.15844319      -0.00010053       0.00093100       0.09091035
C       -1.78683208       6.18976788      10.75070869      -0.00172932      -0.00109863       0.02939902
C       -1.78683208       6.18976788       0.63055283       0.00251248      -0.00137066      -0.20113791
C       -0.89341603       4.64232588       8.22281833       0.00091223       0.00112794       0.10813649
Si      -0.89341603       7.73720981       5.05623624       0.00020389       0.00006325      -0.02839218
Si       0.89341603       4.64232591      12.64850174       0.00096776      -0.00194684      -0.07892413
Si       0.89341603       4.64232591       2.52836107      -0.00010027       0.00025762       0.24336700
Si      -0.89341603       7.73720981      10.12062657      -0.00156246      -0.00019180      -0.07973351
Si      -2.66169509       7.72595419      15.16868613       0.00203863      -0.00108835       0.00340671
Si      -2.68024811       7.73720982       7.58805938       0.00056950      -0.00037255      -0.10077079
C       -2.68024811       7.73720982       5.68435955       0.00187382      -0.00107832       0.09177398
C       -2.68024811       7.73720982      13.27662505       0.01665818      -0.00986481      -0.06507308
C       -0.89341603       7.73720981       3.15844319       0.00076619      -0.00044711       0.09102888
C        0.89341603       4.64232591      10.75070869       0.00164139      -0.00026200       0.04424329
C        0.89341603       4.64232591       0.63055283      -0.00005862       0.00275339      -0.20107415
C       -0.89341603       7.73720981       8.22281833       0.00147170      -0.00055999       0.10776419
Si      -3.57366413       6.18976784       5.05623624      -0.00003420      -0.00009873      -0.02838112
Si      -4.46708018       7.73720984      12.64850174      -0.00035687      -0.00104361      -0.07764886
Si      -4.46708018       7.73720984       2.52836107       0.00009179      -0.00035456       0.24332843
Si      -3.57366413       6.18976784      10.12062657       0.00421250      -0.00188513      -0.08080000
Si      -0.01766942       6.19960824      15.16951266      -0.00242995       0.00107909       0.00202114
Si       0.00000000       6.18976786       7.58805938      -0.00030956       0.00019643      -0.10102379
C        0.00000000       6.18976786       5.68435955      -0.00001260       0.00003702       0.09160172
C        0.00000000       6.18976786      13.27662505      -0.01322730       0.00768374      -0.04207379
C       -3.57366413       6.18976784       3.15844319       0.00119993      -0.00164036       0.09113867
C       -4.46708018       7.73720984      10.75070869       0.00256159       0.00109298       0.04408465
C       -4.46708018       7.73720984       0.63055283       0.00220883      -0.00406877      -0.20068951
C       -3.57366413       6.18976784       8.22281833      -0.00031573      -0.00107652       0.10824113
C       -2.68100640       4.64184388      18.60871289      -0.00052836       0.00037307      -0.00134674
C       -1.33986422       5.41593081      18.60939250      -0.00113668       0.00078187       0.00630075
C       -4.02187352       6.96275100      18.61036246      -0.00083072       0.00019952      -0.00357975
C       -2.68087463       7.73679818      18.60808559      -0.00077262       0.00051885       0.00503988
C       -0.00022788       4.64252529      18.61030297      -0.00044943       0.00093151      -0.00323882
C        1.33934067       5.41559516      18.60995723      -0.00065486       0.00026380      -0.00504425
C       -1.33993928       6.96250500      18.60848464      -0.00180697       0.00100067       0.01431770
C       -0.00038587       7.73587720      18.60939139      -0.00060704       0.00052091       0.00605855
Si       7.14732829      -0.00000002       5.05623624      -0.00040032       0.00007765      -0.02837315
Si       6.25391224       1.54744198      12.64850174      -0.00245849      -0.00017252      -0.07872975
Si       6.25391224       1.54744198       2.52836107       0.00000257       0.00009102       0.24325104
Si       7.14732829      -0.00000002      10.12062657       0.00141616      -0.00262021      -0.08080334
Si       5.35441878      -0.01005620      15.16864641      -0.00073688      -0.00127861       0.00337972
Si       5.36049621       0.00000000       7.58805938      -0.00017715      -0.00012804      -0.10113589
C        5.36049621       0.00000000       5.68435955       0.00001183      -0.00000848       0.09169145
C        5.36049621       0.00000000      13.27662505      -0.00500645      -0.00741995      -0.06628330
C        7.14732829      -0.00000002       3.15844319      -0.00201395      -0.00016918       0.09103402
C        6.25391224       1.54744198      10.75070869      -0.00294828       0.00130483       0.04422066
C        6.25391224       1.54744198       0.63055283      -0.00201009       0.00131820      -0.20105795
C        7.14732829      -0.00000002       8.22281833      -0.00227620       0.00082558       0.10815063
Si       7.14732829       3.09488391       5.05623624      -0.00018923       0.00003831      -0.02839398
Si       8.93416034       0.00000002      12.64850174       0.00051062       0.00051139      -0.13978394
Si       8.93416034       0.00000002       2.52836107      -0.00034350       0.00012238       0.24340145
Si       7.14732829       3.09488391      10.12062657      -0.00027562       0.00283156      -0.08194620
Si       5.34014706       3.10610295      15.16849769      -0.00196818       0.00099399       0.00407726
Si       5.36049621       3.09488393       7.58805938      -0.00036458       0.00022086      -0.10070908
C        5.36049621       3.09488393       5.68435955       0.00001106      -0.00000026       0.09175882
C        5.36049621       3.09488393      13.27662505      -0.01628562       0.00886362      -0.06958176
C        7.14732829       3.09488391       3.15844319      -0.00104181       0.00072042       0.09105665
C        8.93416034       0.00000002      10.75070869      -0.00106906      -0.00260864       0.02905861
C        8.93416034       0.00000002       0.63055283      -0.00464521       0.00016172      -0.20067666
C        7.14732829       3.09488391       8.22281833      -0.00084615      -0.00030622       0.10852446
Si       4.46708018       1.54744195       5.05623624       0.00035713      -0.00002134      -0.02839295
Si       3.57366413       3.09488395      12.64850174       0.00145139       0.00243278      -0.14401649
Si       3.57366413       3.09488395       2.52836107       0.00010644      -0.00003214       0.24332123
Si       4.46708018       1.54744195      10.12062657      -0.00107524       0.00206202      -0.08064471
Si       8.05812093       1.53708210      15.16951943       0.00213119      -0.00158714       0.00206640
Si       8.04074432       1.54744196       7.58805938       0.00006839      -0.00005091      -0.10098522
C        8.04074432       1.54744196       5.68435955      -0.00180183       0.00105415       0.09156932
C        8.04074432       1.54744196      13.27662505       0.01113493      -0.00633777      -0.04222086
C        4.46708018       1.54744195       3.15844319       0.00118399       0.00060112       0.09094995
C        3.57366413       3.09488395      10.75070869       0.00182651       0.00203631       0.02799057
C        3.57366413       3.09488395       0.63055283       0.00216384       0.00110866      -0.20123562
C        4.46708018       1.54744195       8.22281833       0.00126550       0.00001851       0.10803364
C        5.35974531      -0.00024912      18.60856881      -0.00011210      -0.00003908      -0.00095414
C        6.70024777       0.77395796      18.61037546       0.00106392      -0.00065975      -0.00346148
C        4.01859975       2.32084267      18.60706475       0.00074691       0.00017098       0.00698440
C        5.35919935       3.09477518      18.60590763       0.00107729      -0.00083124       0.00612025
C        8.03997600       0.00042856      18.60947150       0.00076105      -0.00103821       0.00577033
C        9.37938233       0.77369067      18.60854614       0.00125984      -0.00071682       0.01401354
C        6.69982593       2.32070809      18.61001988       0.00117114      -0.00078007      -0.00500594
C        8.03985253       3.09382928      18.61044959       0.00097573      -0.00037795      -0.00384200
Si       4.46708018       4.64232588       5.05623624       0.00003394      -0.00006351      -0.02836467
Si       3.57366413       6.18976788      12.64850174       0.00107215      -0.00238598      -0.10930351
Si       3.57366413       6.18976788       2.52836107      -0.00001928      -0.00029413       0.24346547
Si       4.46708018       4.64232588      10.12062657      -0.00187639      -0.00339540      -0.07942369
Si       2.70003142       4.63036881      15.16849773       0.00198129      -0.00128478       0.00397878
Si       2.68024811       4.64232589       7.58805938       0.00039801      -0.00016327      -0.10070265
C        2.68024811       4.64232589       5.68435955       0.00001157      -0.00000848       0.09180072
C        2.68024811       4.64232589      13.27662505       0.01561097      -0.00956887      -0.06975583
C        4.46708018       4.64232588       3.15844319      -0.00010027      -0.00128015       0.09101217
C        3.57366413       6.18976788      10.75070869      -0.00465344      -0.00060370       0.03654335
C        3.57366413       6.18976788       0.63055283      -0.00196072      -0.00389548      -0.20100679
C        4.46708018       4.64232588       8.22281833       0.00062632      -0.00003085       0.10776136
Si       4.46708018       7.73720981       5.05623624       0.00002340      -0.00031856      -0.02832739
Si       6.25391224       4.64232591      12.64850174      -0.00249346      -0.00022137      -0.10919861
Si       6.25391224       4.64232591       2.52836107      -0.00008665      -0.00002648       0.24329269
Si       4.46708018       7.73720981      10.12062657      -0.00357743       0.00248934      -0.08076632
Si       2.68680461       7.74822031      15.16878991       0.00065512       0.00085463       0.00329127
Si       2.68024811       7.73720982       7.58805938      -0.00016352       0.00006993      -0.10041778
C        2.68024811       7.73720982       5.68435955      -0.00178846      -0.00104335       0.09206143
C        2.68024811       7.73720982      13.27662505       0.00285495       0.00721837      -0.06484785
C        4.46708018       7.73720981       3.15844319      -0.00103718      -0.00140768       0.09129165
C        6.25391224       4.64232591      10.75070869       0.00276136      -0.00377309       0.03666110
C        6.25391224       4.64232591       0.63055283      -0.00011956      -0.00233610      -0.20107904
C        4.46708018       7.73720981       8.22281833       0.00018820      -0.00238496       0.10821799
Si       1.78683208       6.18976784       5.05623624      -0.00014861      -0.00018820      -0.02838498
Si       0.89341603       7.73720984      12.64850174      -0.00145139       0.00153006      -0.10827584
Si       0.89341603       7.73720984       2.52836107      -0.00018923      -0.00019180       0.24319962
Si       1.78683208       6.18976784      10.12062657       0.00237210       0.00119633      -0.08193874
Si       5.35396140       6.17856303      15.16940775      -0.00096596      -0.00182574       0.00232248
Si       5.36049621       6.18976786       7.58805938      -0.00011339      -0.00053170      -0.10132023
C        5.36049621       6.18976786       5.68435955       0.00002880      -0.00208568       0.09136158
C        5.36049621       6.18976786      13.27662505      -0.00525688      -0.01149694      -0.04480122
C        1.78683208       6.18976784       3.15844319      -0.00078316      -0.00050625       0.09107824
C        0.89341603       7.73720984      10.75070869       0.00125573       0.00121073       0.03704831
C        0.89341603       7.73720984       0.63055283      -0.00232711      -0.00154549      -0.20101887
C        1.78683208       6.18976784       8.22281833      -0.00169230      -0.00088523       0.10854143
C        2.67976451       4.64174305      18.60596547      -0.00024117      -0.00003188       0.00536255
C        4.02024375       5.41585633      18.60745895      -0.00040469      -0.00093768       0.00625164
C        1.33900020       6.96253281      18.61037627      -0.00084075       0.00003394      -0.00376101
C        2.67949905       7.73663834      18.60867817       0.00022034      -0.00086363      -0.00136346
C        5.35934422       4.64276511      18.60745411       0.00014552      -0.00112846       0.00640745
C        6.69867214       5.41591210      18.60965869       0.00007970      -0.00062658      -0.00201600
C        4.02041959       6.96218539      18.60959426      -0.00078110      -0.00047231      -0.00165528
C        5.35989448       7.73591158      18.61030975      -0.00041215      -0.00020492      -0.00293286
C        4.03525018       3.88822760      22.86962477      -0.00101610      -0.00212399      -0.01931901
O        4.06670018       3.94243288      24.03910863       0.00102973       0.00122513       0.01686875
O        4.00391629       3.83438212      21.69435018       0.00024477       0.00008922       0.01031347
