101
Lattice="17.265850017958673 -0.00010359510010775204 0.0 -8.633011338229426 14.952692293502695 0.0 -0.0 0.0 15.000000722551901" Properties=species:S:1:pos:R:3:forces:R:3 energy=-25986.130545221982 free_energy=-25986.130545221982 pbc="T T T"
C        1.20414966       0.66107732       4.99130342       0.00652340       0.01079606       0.00024734
C       -0.02933313       1.37333406       4.99130719       0.00513706       0.00207231       0.00021880
C       -0.02924565       2.79716875       4.99363320       0.00022831       0.00786629       0.00130098
C       -1.26260611       3.50934722       4.99322031       0.00132618       0.00444209      -0.00162468
C       -1.26268024       4.93313484       4.99668810       0.00731607       0.00922872       0.00125778
C       -2.49587781       5.64530576       4.99334717       0.00137143       0.01521219      -0.00169436
C       -2.49518799       7.06936795       4.99385958       0.00295883       0.01004324       0.00122127
C       -3.72833774       7.78172677       4.99142700      -0.00106932       0.00379521       0.00029953
C       -3.72756519       9.20575023       4.99138163      -0.00409680      -0.00123310       0.00049082
C       -4.96088152       9.91788427       4.99411616      -0.00451023       0.00361780       0.00151669
C       -4.96096128      11.34168234       4.99354090       0.00195969       0.00880269      -0.00116471
C       -6.19430231      12.05385715       4.99729405      -0.00175452       0.00649229       0.00157454
C       -6.19433677      13.47771620       4.99358618      -0.00180543       0.00741249      -0.00133183
C       -7.42769893      14.18993569       4.99416072      -0.01063203       0.00405077       0.00144033
C        3.67079404       0.66104784       4.99360336       0.00167302       0.00478071      -0.00148327
C        2.43729844       1.37317554       4.99388897       0.00745903      -0.00222735       0.00128427
C        2.43740721       2.79723704       5.00271942      -0.00182805      -0.00412816       0.00569371
C        1.20407042       3.50916984       5.00246235      -0.00139791      -0.00106135       0.00564563
C        1.20399307       4.93307273       5.01533801       0.00116085       0.00090503       0.00701088
C       -0.02916981       5.64506178       5.00859975       0.00181263       0.01145761       0.00655374
C       -0.02846841       7.06935255       5.01557415      -0.00401092       0.00070165       0.00701963
C       -1.26161713       7.78157635       5.00280305      -0.00001517      -0.00154832       0.00571351
C       -1.26073291       9.20579706       5.00315387      -0.01208316      -0.01189778       0.00562249
C       -2.49404063       9.91770956       4.99408904      -0.00601587      -0.00255722       0.00161568
C       -2.49416955      11.34167391       4.99372608      -0.00416879       0.00126318      -0.00106855
C       -3.72758630      12.05364250       4.99177998      -0.00133517       0.00174064      -0.00455317
C       -3.72759691      13.47768194       4.99197616      -0.00834426      -0.00046306      -0.00628172
C       -4.96111732      14.18974892       4.99179168      -0.00545100      -0.00144213      -0.00483625
C        6.13722623       0.66099798       4.99430139       0.00893767       0.00917704      -0.00133260
C        4.90389497       1.37302045       4.99751417       0.00268937       0.00423101       0.00147967
C        4.90373999       2.79718081       5.00957493       0.00625369       0.00270197       0.00643110
C        3.67062932       3.50905262       5.01587612      -0.00204017       0.00105852       0.00670878
C        3.67049662       4.93289079       5.03688741       0.00869778       0.01105729       0.00239498
C        2.43731771       5.64475706       5.03682254       0.00169230       0.01690089       0.00278219
C        2.43772129       7.06909276       5.05275509       0.00243046       0.00827227      -0.00397415
C        1.20490524       7.78147289       5.03721417      -0.00297657       0.00184194       0.00226746
C        1.20555398       9.20586519       5.03766317       0.00088652      -0.00490207       0.00170901
C       -0.02749704       9.91763971       5.01656747      -0.00402995       0.00188668       0.00646941
C       -0.02760601      11.34157101       5.01029528      -0.00005631       0.01268120       0.00616576
C       -1.26088516      12.05346145       4.99784105      -0.00085592       0.00683271       0.00172315
C       -1.26106574      13.47759092       4.99449423      -0.00470229       0.00698055      -0.00107729
C       -2.49450090      14.18961352       4.99234774      -0.00524685       0.00184682      -0.00474703
C        8.60355566       0.66185358       4.99280493       0.00160154       0.00305550       0.00073894
C        7.37004170       1.37373550       4.99519567       0.01028853       0.00185994       0.00161620
C        7.37001798       2.79808459       5.00421827      -0.00292977      -0.00458762       0.00592794
C        6.13669750       3.50986917       5.01677207       0.00446601      -0.00129301       0.00667227
C        6.13666396       4.93390071       5.03786758       0.00193964       0.00033656       0.00149792
C        4.90355364       5.64538395       5.05236984       0.00816351       0.01395158      -0.00496300
C        4.90436609       7.06975484       5.07129256       0.00086518      -0.00073971      -0.01683301
C        3.67113482       7.78209807       5.07226842       0.00065486       0.00107086      -0.01634167
C        3.67164155       9.20695086       5.07200304      -0.00783055      -0.01152214      -0.01713640
C        2.43853622       9.91855145       5.05337928      -0.00139714       0.00011596      -0.00556310
C        2.43860399      11.34261923       5.03904148      -0.00442641      -0.00055742       0.00116677
C        1.20534906      12.05426025       5.01774174       0.00229317       0.00169101       0.00652135
C        1.20529673      13.47849873       5.00496091      -0.01009184      -0.00227620       0.00601124
C       -0.02821242      14.19028671       4.99551524      -0.00163394      -0.00010439       0.00179334
C       11.06977013       0.66251108       4.99557617       0.00526690      -0.00003214       0.00202706
C        9.83634075       1.37460064       4.99279986       0.00519286      -0.00765752       0.00084075
C        9.83615291       2.79883130       4.99521700       0.00066669      -0.01014454       0.00184117
C        8.60290499       3.51077538       5.00430609      -0.00015452      -0.01295656       0.00580118
C        8.60269611       4.93464584       5.01711935       0.00420093      -0.00023680       0.00653472
C        7.36970941       5.64642356       5.03814049      -0.00027896       0.00674863       0.00129481
C        7.37041846       7.07062528       5.05303360       0.00208491      -0.00198875      -0.00561940
C        6.13757148       7.78267858       5.07168238      -0.00262612      -0.01029933      -0.01735752
C        6.13803257       9.20736841       5.07317163      -0.00379315      -0.01809645      -0.01679805
C        4.90474898       9.91966020       5.07243208      -0.00934853      -0.00968972      -0.01722408
C        4.90457516      11.34350921       5.05411366       0.00227286      -0.00254411      -0.00584078
C        3.67151798      12.05518299       5.03933916      -0.00551116      -0.00474240       0.00105621
C        3.67136562      13.47914337       5.01812494      -0.00262227      -0.00325810       0.00657148
C        2.43807453      14.19114689       5.00505965      -0.00935059      -0.00726362       0.00610303
C       13.53634785       0.66241824       4.99823558       0.00493266       0.00152081       0.00192293
C       12.30284701       1.37449464       4.99463275       0.00914824       0.00044326      -0.00085901
C       12.30279713       2.79857689       4.99239723       0.00199620      -0.00290740      -0.00438502
C       11.06943772       3.51060398       4.99435075       0.00476785      -0.00121305      -0.00097625
C       11.06925769       4.93450914       4.99779948       0.00559164       0.00391810       0.00172290
C        9.83598473       5.64644145       5.01013170       0.01245417       0.01248091       0.00619842
C        9.83684343       7.07067562       5.01680115      -0.00011056       0.00119968       0.00665890
C        8.60375977       7.78282530       5.03803912       0.00281947      -0.00257702       0.00167687
C        8.60456498       9.20712847       5.03834869      -0.00139997      -0.01228345       0.00206871
C        7.37159673       9.91929954       5.05431926      -0.00220832      -0.00018846      -0.00487224
C        7.37122761      11.34321834       5.03879199       0.00118271       0.00177817       0.00170258
C        6.13781421      12.05518022       5.03889878       0.00118091       0.00219572       0.00122873
C        6.13789214      13.47908211       5.01755677      -0.00709187       0.00231579       0.00650926
C        4.90442592      14.19115176       5.01093836      -0.00096596      -0.00307838       0.00632029
C       16.00288489       0.66225593       4.99443620       0.01011163      -0.00445366       0.00158637
C       14.76953499       1.37444348       4.99403285       0.00018383      -0.00796014      -0.00115571
C       14.76949993       2.79833845       4.99182825       0.00160000      -0.00642236      -0.00479691
C       13.53614416       3.51054929       4.99203128      -0.00184734      -0.00928708      -0.00630075
C       13.53606397       4.93433440       4.99184208       0.00428963      -0.00368336      -0.00494732
C       12.30273700       5.64645460       4.99389720       0.00380395       0.00146424      -0.00131486
C       12.30348096       7.07054288       4.99436478       0.00141925      -0.00393507       0.00138891
C       11.07034103       7.78289206       5.00361574      -0.00279530      -0.01042351       0.00572970
C       11.07107591       9.20692171       5.00345372      -0.00054327      -0.01600537       0.00575516
C        9.83791111       9.91907015       5.01670037      -0.00587214      -0.00888548       0.00688027
C        9.83781608      11.34286642       5.00982986      -0.00100993      -0.00300999       0.00640565
C        8.60447794      12.05507325       5.01695509       0.00007456      -0.00677640       0.00681419
C        8.60450672      13.47886474       5.00365476      -0.00439376      -0.00205997       0.00592974
C        7.37098451      14.19113211       5.00393228      -0.00539649      -0.01112876       0.00598784
C        4.92465278       8.53882052       8.58239122       0.01421846      -0.02498881      -0.01276553
O        4.33809197       9.55596065       8.58654368      -0.00294931       0.00444544      -0.01924445
O        5.51149360       7.52144597       8.58317571      -0.01324144       0.02197702      -0.01989700
