101
Lattice="17.265850017958673 -0.00010359510010775204 0.0 -8.633011338229426 14.952692293502695 0.0 -0.0 0.0 15.000000722551901" Properties=species:S:1:pos:R:3:forces:R:3 energy=-25986.075209784434 free_energy=-25986.075209784434 pbc="T T T"
C        1.20452095       0.66151687       5.01085701      -0.00701834       0.00251917      -0.00332495
C       -0.02943655       1.37383160       5.01085701       0.01346615       0.00497714      -0.00332469
C       -0.02951252       2.79817272       5.00366751      -0.00288324      -0.00748371      -0.00525122
C       -1.26327836       3.51028889       5.00417512       0.00746546      -0.00485321      -0.00204711
C       -1.26332498       4.93416383       4.99978269       0.00821339       0.00219752      -0.00529647
C       -2.49677831       5.64627655       5.00647839       0.01095804      -0.01512966      -0.00343525
C       -2.49519503       7.06977336       5.00684442       0.00022600       0.01037877      -0.00552170
C       -3.72840837       7.78175141       5.01205353       0.00008793      -0.00768580      -0.00422946
C       -3.72690970       9.20520679       5.00979861      -0.00953879       0.01939486       0.00021649
C       -4.96030260       9.91735922       5.00875403      -0.00904283       0.00031085       0.00284133
C       -4.96042691      11.34120826       5.00614170      -0.00257239       0.00941461       0.00774442
C       -6.19409780      12.05332443       5.00674774       0.00054764       0.01431719       0.00560706
C       -6.19427909      13.47765173       5.00834828      -0.00611717      -0.00156837       0.00623467
C       -7.42811054      14.18993711       5.01190159       0.00750531       0.00444929       0.00044352
C        3.67158301       0.66114738       5.00418030      -0.00577084      -0.00320668      -0.00207334
C        2.43800881       1.37346902       5.00366578      -0.00345942       0.00039749      -0.00524299
C        2.43769630       2.79782049       4.99053510      -0.00631000      -0.00974217      -0.00531216
C        1.20408930       3.51001954       4.99052992      -0.00264104      -0.00895644      -0.00523297
C        1.20398225       4.93399290       4.97557079       0.00159588      -0.00556001       0.00037204
C       -0.02943309       5.64586735       4.98463881       0.00297168      -0.01376749      -0.00303904
C       -0.02791197       7.06955927       4.97968869      -0.00839568      -0.00164988      -0.00171004
C       -1.26108560       7.78134911       4.99542306      -0.00659025      -0.00639279      -0.00564717
C       -1.25975958       9.20494435       4.99625873      -0.01687055       0.00961927      -0.00510724
C       -2.49304026       9.91698973       5.00490374      -0.01569350      -0.00185017      -0.00067466
C       -2.49336313      11.34091992       5.00477080      -0.00802107       0.00347536       0.00397467
C       -3.72683027      12.05301537       5.00541826      -0.00965835       0.00906160       0.00893510
C       -3.72717386      13.47733232       5.00602775      -0.00781024      -0.00780407       0.00792517
C       -4.96073252      14.18954690       5.00667177      -0.01045565       0.00204711       0.00579707
C        6.13809428       0.66088149       5.00648011      -0.00953442      -0.00158509      -0.00343808
C        4.90477562       1.37297694       4.99978269      -0.00662522       0.01182785      -0.00530213
C        4.90410398       2.79748036       4.98463881      -0.00738112      -0.00510493      -0.00306398
C        3.67095280       3.50969322       4.97556906      -0.00740503      -0.00035635       0.00037898
C        3.67044001       4.93375463       4.95466703       0.00276368       0.00201163       0.00551167
C        2.43748393       5.64561354       4.95466875       0.00095825      -0.00068983       0.00549059
C        2.43889628       7.06944013       4.94324739      -0.00702965       0.00185119       0.00587240
C        1.20592121       7.78075690       4.96063928      -0.00547825       0.00799356       0.00372399
C        1.20681731       9.20454033       4.96669960      -0.01891201       0.01459152       0.00371139
C       -0.02621647       9.91646139       4.98631187      -0.01504018       0.00945729      -0.00276651
C       -0.02683631      11.34055906       4.99614996      -0.01153911       0.00940227      -0.00507536
C       -1.26007382      12.05253711       5.00480533      -0.00766394       0.01861402      -0.00061449
C       -1.26067467      13.47704743       5.00965358      -0.01294293      -0.00352627       0.00030519
C       -2.49399333      14.18908763       5.00860554      -0.00917447       0.01353043       0.00313623
C        8.60332444       0.66200549       5.01205353       0.00339874      -0.00603181      -0.00424335
C        7.37028721       1.37399563       5.00684097      -0.00104155       0.00595030      -0.00554047
C        7.36934449       2.79859228       4.99541961       0.00479459      -0.00947246      -0.00566491
C        6.13642986       3.51066183       4.97968352      -0.00395461      -0.00940047      -0.00166607
C        6.13534729       4.93477849       4.96063756       0.01429019       0.00117525       0.00376487
C        4.90290055       5.64695164       4.94324739       0.00047308      -0.01191115       0.00589991
C        4.90343407       7.07037422       4.92922062       0.00906082      -0.00016147       0.00500877
C        3.67145179       7.78173069       4.92922062      -0.00960024      -0.00032756       0.00503551
C        3.67198357       9.20511010       4.94286927      -0.00056230       0.01183659       0.00594002
C        2.43955238       9.91727116       4.96034749      -0.01471571      -0.00097779       0.00399729
C        2.43844391      11.34142753       4.97935028       0.00409217       0.00919915      -0.00158740
C        1.20554481      12.05350399       4.99524177      -0.00530367       0.00946886      -0.00562352
C        1.20459692      13.47808856       5.00678054       0.00104695      -0.00610920      -0.00556695
C       -0.02843858      14.19010632       5.01199310      -0.00372604       0.00585235      -0.00418498
C       11.06884293       0.66300346       5.00875057       0.00925443      -0.01377031       0.00282719
C        9.83552254       1.37501949       5.00979516       0.01276373       0.00353424       0.00021572
C        9.83491651       2.79955053       5.00489684       0.00770842      -0.01843764      -0.00066617
C        8.60167727       3.51154757       4.99625355       0.01162164      -0.00978948      -0.00508487
C        8.60106088       4.93560725       4.98631187       0.01498747      -0.00967378      -0.00276085
C        7.36801848       5.64750070       4.96670132       0.01878731      -0.01457790       0.00371062
C        7.36888868       7.07133074       4.96035440       0.00539315      -0.00792543       0.00395770
C        6.13593951       7.78264405       4.94286927       0.00709676      -0.00198746       0.00592768
C        6.13733459       9.20639986       4.95408862      -0.00118194       0.00065075       0.00601998
C        4.90438714       9.91826567       4.95408517      -0.00296654      -0.00227234       0.00600661
C        4.90388643      11.34235644       4.97502346       0.00735875       0.00014784       0.00102433
C        3.67073525      12.05454858       4.98424515       0.00700317       0.00538209      -0.00278450
C        3.67006016      13.47904509       4.99966874       0.00694069      -0.01143267      -0.00536384
C        2.43676049      14.19120270       5.00650947       0.00896569       0.00125316      -0.00358412
C       13.53556312       0.66250793       5.00674601       0.01061146      -0.00199389       0.00560578
C       12.30204418       1.37474324       5.00613652       0.00745646       0.00778659       0.00774339
C       12.30167296       2.79907572       5.00541136       0.00972751      -0.00922100       0.00892841
C       11.06822654       3.51119707       5.00476389       0.00784186      -0.00356689       0.00397878
C       11.06787949       4.93507892       5.00479842       0.01588273       0.00191084      -0.00060678
C        9.83462299       5.64712948       4.99615168       0.01668363      -0.00972700      -0.00507793
C        9.83591275       7.07074543       4.99524523       0.00678128       0.00637274      -0.00561992
C        8.60275121       7.78252664       4.97936064       0.00834914       0.00158149      -0.00163265
C        8.60423262       9.20615296       4.98424688      -0.00270917       0.01399323      -0.00274902
C        7.37084144       9.91805158       4.97502692      -0.00163908       0.00524222       0.00100376
C        7.37072922      11.34204047       4.99010518       0.00264875       0.00904566      -0.00501468
C        6.13715502      12.05423779       4.99010864       0.00616422       0.00958996      -0.00509721
C        6.13682179      13.47855992       5.00351902       0.00352704      -0.00012650      -0.00540266
C        4.90327004      14.19091608       5.00415440       0.00559575       0.00333164      -0.00230448
C       16.00293424       0.66212808       5.01190159      -0.00733330      -0.00462490       0.00045894
C       14.76908034       1.37436511       5.00834655       0.00641490       0.00215253       0.00623621
C       14.76891286       2.79872695       5.00666659      -0.00034658      -0.01424905       0.00582381
C       13.53524198       3.51087765       5.00602257       0.00262664      -0.00937296       0.00791283
C       13.53513148       4.93470770       5.00860036       0.00907497      -0.00046408       0.00314909
C       12.30172303       5.64683769       5.00965012       0.00967815      -0.01919483       0.00028668
C       12.30323552       7.07034141       5.01199137       0.00002674       0.00766574      -0.00418318
C       11.07000147       7.78230910       5.00678399      -0.00006248      -0.01056981      -0.00558032
C       11.07160028       9.20577311       5.00651119      -0.01092385       0.01525358      -0.00358823
C        9.83810897       9.91785993       4.99967046      -0.00773645      -0.00186945      -0.00535227
C        9.83808997      11.34177458       5.00415268      -0.00726748       0.00504810      -0.00229188
C        8.60430514      12.05386830       5.00352075       0.00331698       0.00754799      -0.00541474
C        8.60425679      13.47820424       5.01081557      -0.01330674      -0.00478739      -0.00355764
C        7.37028203      14.19053624       5.01081730       0.00721194      -0.00242789      -0.00354298
C        4.31902303       7.48068333       9.24673288       0.00065666       0.00054559      -0.00050779
O        4.31469793       7.47341959      10.42056724      -0.00057644      -0.00076079       0.01438224
O        4.32348625       7.48805930       8.07240645       0.00045560       0.00077005       0.00550885
