101
Lattice="17.265850017958673 -0.00010359510010775204 0.0 -8.633011338229426 14.952692293502695 0.0 -0.0 0.0 15.000000722551901" Properties=species:S:1:pos:R:3:forces:R:3 energy=-25986.144062204803 free_energy=-25986.144062204803 pbc="T T T"
C        1.20447983       0.66226785       4.99422969      -0.00390885      -0.00203580       0.00426032
C       -0.02867271       1.37418918       4.99423155       0.00013087      -0.00123567       0.00428629
C       -0.02821867       2.79833109       5.00514174      -0.00794677      -0.00485938       0.00408728
C       -1.26141306       3.51009050       5.00006708      -0.00417007       0.00435802       0.00174424
C       -1.26132740       4.93420406       5.00810450      -0.00944263       0.00117345       0.00312955
C       -2.49467483       5.64620039       4.99682397      -0.00716695      -0.00176558       0.00251634
C       -2.49538238       7.07036330       4.99830337      -0.00357923       0.00344734       0.00423075
C       -3.72877828       7.78249846       4.98957641      -0.00475603      -0.00664810       0.00372501
C       -3.72953143       9.20664099       4.98885931       0.00119865      -0.00051756       0.00165708
C       -4.96287562       9.91868995       4.98853912       0.00032344      -0.00408497      -0.00005682
C       -4.96285897      11.34284878       4.98693125       0.00078856      -0.00681831      -0.00311823
C       -6.19603689      12.05464760       4.98976392      -0.00236927       0.00490592      -0.00155346
C       -6.19571912      13.47884878       4.98813859      -0.00126653      -0.00276239      -0.00050394
C       -7.42879552      14.19075026       4.98965556      -0.00300382       0.00238753       0.00298891
C        3.67054934       0.66256983       5.00006432       0.00578293       0.00255593       0.00176635
C        2.43753890       1.37471091       5.00514142       0.00146733      -0.00972186       0.00408008
C        2.43786593       2.79853730       5.02519489      -0.00084486       0.00498948       0.00383146
C        1.20471032       3.51056391       5.02519323       0.00296422      -0.00241889       0.00375407
C        1.20479403       4.93441755       5.04313651      -0.00324010       0.00612437       0.00032062
C       -0.02847982       5.64649796       5.03030877      -0.00029645      -0.00262638       0.00243843
C       -0.02931761       7.07060021       5.03564652       0.00060524       0.00199158       0.00250837
C       -1.26255470       7.78278649       5.01436771       0.00122050      -0.00469818       0.00442590
C       -1.26325710       9.20691747       5.01056061       0.00629586      -0.00171853       0.00451923
C       -2.49650254       9.91900404       4.99444059       0.00454700      -0.00477068       0.00145730
C       -2.49656052      11.34310945       4.99035365       0.00554998      -0.00429194      -0.00106161
C       -3.72970744      12.05504710       4.98556011       0.00110480       0.00066077      -0.00394382
C       -3.72948293      13.47912069       4.98664709       0.00533838       0.00102433      -0.00326453
C       -4.96254102      14.19121334       4.98929143      -0.00276239      -0.00170361      -0.00169487
C        6.13708467       0.66257941       4.99682856       0.00301076      -0.00311926       0.00251325
C        4.90382295       1.37473790       5.00810934       0.00463776      -0.00913487       0.00313237
C        4.90422010       2.79853351       5.03032248       0.00096314       0.00068468       0.00244101
C        3.67096706       3.51060559       5.04314677       0.00378672      -0.00277345       0.00022651
C        3.67102015       4.93427879       5.06782668       0.00146759       0.00221963      -0.00591328
C        2.43770937       5.64634994       5.06782331       0.00077622       0.00122307      -0.00594696
C        2.43684563       7.07043992       5.07837977       0.00503679      -0.00527436      -0.00908294
C        1.20357247       7.78274570       5.05814479       0.00554818       0.00086543      -0.00242506
C        1.20317419       9.20703861       5.04984512       0.00744334      -0.00675480      -0.00027974
C       -0.03019253       9.91908235       5.02409072       0.00925417      -0.00209699       0.00393533
C       -0.02997131      11.34313815       5.01084177       0.00449120      -0.00792620       0.00457656
C       -1.26327312      12.05505236       4.99452654       0.00714947       0.00159717       0.00139380
C       -1.26287713      13.47910754       4.98883740       0.00111303      -0.00283773       0.00163059
C       -2.49618799      14.19122521       4.98816309       0.00408445      -0.00080501      -0.00022549
C        8.60420799       0.66196679       4.98958444      -0.00223249      -0.00487147       0.00369930
C        7.37081710       1.37406058       4.99831243       0.00289738      -0.00066309       0.00428397
C        7.37133397       2.79796543       5.01438403      -0.00274594      -0.00286961       0.00433925
C        6.13800617       3.50987804       5.03566110      -0.00200649       0.00238650       0.00255542
C        6.13825360       4.93371515       5.05815153      -0.00203271       0.00182188      -0.00248806
C        4.90475979       5.64556376       5.07838150      -0.00793417       0.00395616      -0.00904797
C        4.90460941       7.07003878       5.09093484       0.00472414      -0.00430377      -0.01492114
C        3.67050906       7.78252644       5.09093828      -0.00478379       0.00435262      -0.01492525
C        3.67036416       9.20698263       5.07914738       0.00805449      -0.00400732      -0.00948454
C        2.43682973       9.91883692       5.05889129       0.00182625      -0.00175092      -0.00272280
C        2.43708603      11.34270332       5.03670734       0.00209493      -0.00246517       0.00231502
C        1.20374806      12.05456727       5.01505549       0.00277319       0.00326144       0.00433977
C        1.20426213      13.47845787       4.99888281      -0.00274774       0.00049699       0.00443104
C       -0.02912682      14.19056636       4.98972275       0.00218030       0.00490926       0.00371139
C       11.07125299       0.66128929       4.98854070      -0.00415259       0.00080964      -0.00003034
C        9.83792952       1.37337563       4.98886048      -0.00111329       0.00263230       0.00169539
C        9.83833543       2.79744219       4.99444209      -0.00697823      -0.00102150       0.00144727
C        8.60503054       3.50938744       5.01056659      -0.00447783       0.00765057       0.00453620
C        8.60527008       4.93341560       5.02408389      -0.00900323       0.00239627       0.00393867
C        7.37189837       5.64544961       5.04983713      -0.00732327       0.00689981      -0.00027562
C        7.37155259       7.06978346       5.05887005      -0.00552273      -0.00096853      -0.00265518
C        6.13824960       7.78211893       5.07913492      -0.00484242       0.00559652      -0.00952671
C        6.13740511       9.20621776       5.06909100      -0.00089963      -0.00128684      -0.00663345
C        4.90409846       9.91828300       5.06909905      -0.00127295      -0.00208979      -0.00659822
C        4.90413306      11.34197371       5.04475097      -0.00366228       0.00296628      -0.00013524
C        3.67085393      12.05399949       5.03171727      -0.00101816      -0.00067517       0.00231039
C        3.67124924      13.47777189       5.00927333      -0.00449506       0.00904745       0.00327584
C        2.43796824      14.18993458       4.99756700      -0.00288401       0.00313186       0.00271097
C       13.53762512       0.66131594       4.98977125       0.00281459       0.00159537      -0.00155757
C       12.30457387       1.37337992       4.98693217      -0.00506019      -0.00102587      -0.00308841
C       12.30478727       2.79744952       4.98556318      -0.00107138      -0.00044532      -0.00393970
C       11.07165642       3.50941558       4.99035316      -0.00560860       0.00421018      -0.00106212
C       11.07158830       4.93347709       4.99452129      -0.00416724       0.00515275       0.00140279
C        9.83836995       5.64557609       5.01082596      -0.00653729       0.00161748       0.00455060
C        9.83766322       7.06972981       5.01502816      -0.00085129       0.00503833       0.00442384
C        8.60446352       7.78195269       5.03667992      -0.00074845      -0.00212579       0.00226668
C        8.60358920       9.20601154       5.03169062       0.00048362       0.00278039       0.00231476
C        7.37034216       9.91813921       5.04473308       0.00344476      -0.00580786      -0.00005734
C        7.37039704      11.34201083       5.02686952      -0.00281356       0.00231322       0.00358566
C        6.13726255      12.05402467       5.02687619       0.00076439      -0.00492649       0.00365714
C        6.13755835      13.47781379       5.00646062      -0.00129866       0.00991057       0.00406723
C        4.90455595      14.18997609       5.00112630      -0.00581584      -0.00272511       0.00196484
C       16.00389735       0.66179221       4.98966106       0.00310718      -0.00248189       0.00299431
C       14.77079483       1.37364484       4.98814712       0.00123182       0.00276394      -0.00051165
C       14.77113735       2.79786867       4.98930082       0.00243021      -0.00470640      -0.00169204
C       13.53793419       3.50966259       4.98665710      -0.00092148       0.00687513      -0.00329641
C       13.53797704       4.93380248       4.98816861      -0.00020569       0.00410245      -0.00024220
C       12.30461330       5.64582308       4.98883669      -0.00143082       0.00053633       0.00158946
C       12.30389123       7.07001589       4.98971271       0.00468789       0.00668872       0.00374430
C       11.07048135       7.78214647       4.99886608       0.00340106      -0.00366151       0.00436676
C       11.06978386       9.20628068       4.99755124       0.00694352       0.00205174       0.00271791
C        9.83642041       9.91829445       5.00925334       0.00925880      -0.00115365       0.00327173
C        9.83651924      11.34245683       5.00111200       0.00397441      -0.00469201       0.00195507
C        8.60331024      12.05419694       5.00645024       0.00799485       0.00511161       0.00407108
C        8.60378084      13.47833404       4.99500217      -0.00027279       0.00108115       0.00430506
C        7.37060575      14.19026798       4.99500657       0.00378518       0.00191856       0.00426597
C        4.31491307       7.47327536       8.50349599      -0.01258915      -0.02180475      -0.02210120
O        3.72764200       6.45626001       8.51003167       0.00595390       0.01033018      -0.01775012
O        4.90206292       8.49007302       8.50356620       0.00536821       0.00932745      -0.01886830
