101
Lattice="17.265850017958673 -0.00010359510010775204 0.0 -8.633011338229426 14.952692293502695 0.0 -0.0 0.0 15.000000722551901" Properties=species:S:1:pos:R:3:forces:R:3 energy=-26237.187207949137 free_energy=-26237.187207949137 pbc="T T T"
C        1.20446070       0.66207591       4.99827052      -0.00469381       0.00010104       0.00450303
C       -0.02865691       1.37363030       4.99820239       0.00739398       0.01419532       0.00462670
C       -0.02840249       2.79780529       5.00015540      -0.00369493       0.00696178       0.00366948
C       -1.26151515       3.50989002       4.99277920      -0.00575156      -0.00017046       0.00539572
C       -1.26187472       4.93426706       5.00014214       0.00048208      -0.00480771       0.00208362
C       -2.49508176       5.64641148       4.99303324      -0.00195558      -0.01219269       0.00530573
C       -2.49565530       7.07044169       5.00089735      -0.00003317      -0.00553404       0.00361549
C       -3.72901207       7.78221826       4.99878196       0.00430480       0.00167302       0.00545562
C       -3.72952435       9.20621750       4.99917914       0.00215484       0.00757524       0.00514169
C       -4.96275566       9.91831762       5.00216226       0.00327379       0.00647224       0.00228597
C       -4.96309187      11.34273378       4.99448304       0.01025716      -0.00488921       0.00504759
C       -6.19606603      12.05493317       5.00192178      -0.00231888      -0.00547105       0.00158406
C       -6.19607637      13.47919089       4.99407813       0.00589862      -0.01764317       0.00483573
C       -7.42910272      14.19093590       5.00150157       0.00895669      -0.00192370       0.00259141
C        3.67071234       0.66249839       4.99334750       0.00385280      -0.01325018       0.00484807
C        2.43757142       1.37401302       5.00047019       0.00652160       0.01876083       0.00357898
C        2.43801652       2.79814224       5.01515760      -0.01046748       0.00434208      -0.00268629
C        1.20453767       3.51019755       5.01498580       0.01184147      -0.00017792      -0.00238007
C        1.20458633       4.93440714       5.02800634      -0.01270588      -0.00194864      -0.00631334
C       -0.02897547       5.64657816       5.02026748       0.00958919      -0.00955062      -0.00514221
C       -0.02938141       7.07063749       5.02883212      -0.00225486      -0.00755493      -0.00641747
C       -1.26281118       7.78244827       5.01631173       0.00782155       0.00714458      -0.00271354
C       -1.26315179       9.20653695       5.01703060       0.00246183       0.00316169      -0.00304007
C       -2.49656531       9.91847494       5.00197437       0.01206002       0.01077267       0.00308944
C       -2.49653374      11.34289654       4.99466709       0.00008279      -0.00386720       0.00488561
C       -3.72989126      12.05506307       4.98586795       0.00689107      -0.00273977       0.00790614
C       -3.72966532      13.47942151       4.98197772       0.00622181      -0.02201301       0.00916264
C       -4.96284915      14.19108805       4.98526513       0.00464984       0.00714587       0.00820979
C        6.13739347       0.66222200       4.99442555       0.01005944      -0.00390551       0.00504605
C        4.90430750       1.37400521       5.00099556      -0.00585363       0.01477202       0.00189516
C        4.90457547       2.79793891       5.02067866       0.00340131       0.00861114      -0.00486247
C        3.67124057       3.51021579       5.02803823       0.00584746      -0.00317994      -0.00569474
C        3.67143330       4.93426911       5.04157884      -0.00390602       0.00542606      -0.00435519
C        2.43768736       5.64652881       5.04204059       0.00990929      -0.01704153      -0.00392427
C        2.43720726       7.07038341       5.04759435       0.00143365       0.00177560       0.00078701
C        1.20372224       7.78253169       5.04287392       0.00430891       0.00176763      -0.00417804
C        1.20339825       9.20659590       5.04317954       0.01255778       0.00661288      -0.00480154
C       -0.02994200       9.91865425       5.03016872      -0.00053685       0.00661288      -0.00675249
C       -0.02997720      11.34288572       5.02282127       0.00835300      -0.00169256      -0.00559266
C       -1.26318395      12.05513256       5.00259291       0.00246312      -0.01121387       0.00186096
C       -1.26292274      13.47916440       4.99530939       0.00710447      -0.01170083       0.00542014
C       -2.49611065      14.19108012       4.98603853       0.00049082      -0.00107626       0.00808046
C        8.60421818       0.66156945       5.00088095       0.01139821       0.00389831       0.00484216
C        7.37126099       1.37358768       5.00270775      -0.01804966       0.01001008       0.00299019
C        7.37125644       2.79747602       5.01759187       0.01485866       0.01050681      -0.00268115
C        6.13826543       3.50986640       5.02918582      -0.01728913      -0.00295137      -0.00555333
C        6.13805861       4.93384723       5.04217505       0.01320981       0.00418293      -0.00360160
C        4.90497624       5.64616465       5.04579094      -0.01287557      -0.01961880       0.00085618
C        4.90456579       7.06965456       5.04579287       0.00701757       0.00865948       0.00873789
C        3.67103038       7.78222125       5.04769283      -0.00598167      -0.00717903       0.00922486
C        3.67017864       9.20626806       5.04645814       0.01149746       0.01629282       0.00857951
C        2.43700573       9.91846608       5.04720292      -0.00961464      -0.00154395       0.00007379
C        2.43687193      11.34240158       5.04386563       0.01303241       0.00348256      -0.00409757
C        1.20375923      12.05471707       5.03118162      -0.01057700      -0.01207236      -0.00629535
C        1.20383904      13.47856799       5.01904184       0.01308074      -0.00614982      -0.00337097
C       -0.02912143      14.19061082       5.00353890      -0.01080892      -0.00626295       0.00295394
C       11.07126229       0.66098592       5.00404984      -0.00537103       0.00365688       0.00220266
C        9.83802618       1.37291470       5.00121964      -0.00664913       0.01249608       0.00471669
C        9.83819509       2.79693563       5.00341961      -0.00059110       0.01278250       0.00296808
C        8.60502757       3.50929956       5.01809007      -0.01212455       0.00145396      -0.00298531
C        8.60490523       4.93350055       5.03021541       0.00535149      -0.00380215      -0.00657534
C        7.37174229       5.64566458       5.04265211      -0.01655019      -0.00980927      -0.00393353
C        7.37131000       7.06942254       5.04636624       0.00131229      -0.00117319       0.00066180
C        6.13801825       7.78120583       5.04581623      -0.00544585       0.00063018       0.00899140
C        6.13739790       9.20540690       5.04775020      -0.00720757       0.01383665       0.00933053
C        4.90366605       9.91814971       5.04625309       0.00433051      -0.00077519       0.00875538
C        4.90383583      11.34214852       5.04684729      -0.00593411       0.00230037       0.00112126
C        3.67050312      12.05427075       5.04376458      -0.00052476      -0.01015869      -0.00388339
C        3.67081227      13.47819292       5.03118165       0.00088446      -0.01151957      -0.00629843
C        2.43763058      14.19000963       5.01919186      -0.00418447      -0.00039312      -0.00347176
C       13.53796276       0.66098463       5.00272663      -0.01006201      -0.00447835       0.00110532
C       12.30469378       1.37258914       4.99574861       0.00026148       0.02114655       0.00480488
C       12.30496502       2.79682590       4.98645140      -0.01042608       0.00659668       0.00814551
C       11.07158018       3.50907628       4.99533288       0.00195507       0.00312492       0.00491698
C       11.07163791       4.93344866       5.00226933      -0.01101872      -0.00543994       0.00151258
C        9.83830024       5.64547958       5.02229981      -0.00429117      -0.00660208      -0.00554921
C        9.83793909       7.06951426       5.03004725      -0.00357923      -0.00772694      -0.00666636
C        8.60451418       7.78120485       5.04302157      -0.00236541       0.01068782      -0.00404460
C        8.60430175       9.20543977       5.04372891      -0.00607783       0.00385177      -0.00381320
C        7.37086909       9.91772701       5.04841861       0.00860600       0.00896055       0.00099990
C        7.37068855      11.34217165       5.04371802      -0.00931614      -0.00339231      -0.00411634
C        6.13706831      12.05419323       5.04317169       0.01113211      -0.00283901      -0.00397775
C        6.13759015      13.47839442       5.03013515      -0.00819642      -0.01789514      -0.00623750
C        4.90429316      14.18979846       5.02280842       0.00218981       0.00897624      -0.00512472
C       16.00435846       0.66131241       5.00162722      -0.01231841       0.00272023       0.00241118
C       14.77113429       1.37284644       4.99433042      -0.00047205       0.01702096       0.00473623
C       14.77130226       2.79703742       4.98501407      -0.00267112       0.01044382       0.00832523
C       13.53813554       3.50926114       4.98169749      -0.00508076       0.00147067       0.00933002
C       13.53791176       4.93363343       4.98497509      -0.00595365       0.00081555       0.00837768
C       12.30457829       5.64583641       4.99415278       0.00034813      -0.01330700       0.00507741
C       12.30409352       7.06982946       5.00177273      -0.00339051      -0.00254693       0.00305319
C       11.07082544       7.78155943       5.01744456      -0.00169024       0.00750171      -0.00359312
C       11.07033531       9.20568727       5.01753137       0.00445109       0.00542786      -0.00355609
C        9.83728930       9.91773515       5.03035469      -0.00485424       0.01386802      -0.00690238
C        9.83679838      11.34226815       5.02227296       0.00873918      -0.00505325      -0.00568291
C        8.60382171      12.05448526       5.03016220       0.00027434      -0.00454314      -0.00666584
C        8.60394062      13.47866473       5.01714451      -0.00684608      -0.01484889      -0.00390525
C        7.37072528      14.19026067       5.01722482       0.00597473      -0.00210471      -0.00344836
C        4.92610469       8.54047779       8.46110483       0.00152364      -0.01240352      -0.02103805
O        4.33743740       9.55506898       8.46219757      -0.00455471      -0.00283361      -0.02107996
O        5.51598163       7.52654737       8.46310365      -0.00495760       0.00228083      -0.02371123
