179
Lattice="10.720992125991367 0.0 0.0 -5.360496062995684 9.284647205911675 0.0 0.0 0.0 34.99999747733031" Properties=species:S:1:pos:R:3:forces:R:3 energy=-73584.26660936586 free_energy=-73584.26660936586 pbc="T T T"
Si       1.78683208      -0.00000002       5.05623624       0.00029156       0.00003625      -0.02855261
Si       0.89341603       1.54744198      12.64850174      -0.00005065       0.00038952      -0.11051758
Si       0.89341603       1.54744198       2.52836107       0.00023423       0.00025788       0.24329604
Si       1.78683208      -0.00000002      10.12062657      -0.00052785      -0.00080733      -0.08097561
Si       0.00201234       0.00262905      15.16903486      -0.00104053      -0.00121022      -0.00075051
Si       0.00000000       0.00000000       7.58805938       0.00005785       0.00002700      -0.10103098
C        0.00000000       0.00000000       5.68435955      -0.00005785       0.00014964       0.09267773
C        0.00000000       0.00000000      13.27662505       0.00190364       0.00227028      -0.06184712
C        1.78683208      -0.00000002       3.15844319       0.00192087       0.00003471       0.09142817
C        0.89341603       1.54744198      10.75070869      -0.00126061       0.00160694       0.03638162
C        0.89341603       1.54744198       0.63055283       0.00240141       0.00386514      -0.20064529
C        1.78683208      -0.00000002       8.22281833       0.00203631       0.00033887       0.10820976
Si       1.78683208       3.09488391       5.05623624       0.00006505       0.00021520      -0.02862435
Si       3.57366413       0.00000002      12.64850174       0.00026534       0.00017561      -0.10723943
Si       3.57366413       0.00000002       2.52836107       0.00026302       0.00005862       0.24324744
Si       1.78683208       3.09488391      10.12062657      -0.00055742       0.00159306      -0.08091904
Si      -0.00066468       3.09469258      15.16896150       0.00130098       0.00182728      -0.00082095
Si       0.00000000       3.09488393       7.58805938       0.00003934       0.00037024      -0.10106338
C        0.00000000       3.09488393       5.68435955       0.00012393       0.00194555       0.09268441
C        0.00000000       3.09488393      13.27662505       0.00000746       0.00142696      -0.06368237
C        1.78683208       3.09488391       3.15844319       0.00097753       0.00165810       0.09127776
C        3.57366413       0.00000002      10.75070869       0.00325887      -0.00230268       0.03752551
C        3.57366413       0.00000002       0.63055283       0.00455651      -0.00000309      -0.20113457
C        1.78683208       3.09488391       8.22281833       0.00118991       0.00134186       0.10805678
Si      -0.89341603       1.54744195       5.05623624      -0.00011596       0.00025402      -0.02860069
Si      -1.78683208       3.09488395      12.64850174       0.00128915       0.00115777      -0.10680697
Si      -1.78683208       3.09488395       2.52836107      -0.00025685       0.00021494       0.24326493
Si      -0.89341603       1.54744195      10.12062657       0.00174038       0.00027485      -0.08098589
Si       2.68060754       1.54609127      15.16967293      -0.00054585       0.00280533      -0.00160823
Si       2.68024811       1.54744196       7.58805938       0.00023706       0.00019026      -0.10128707
C        2.68024811       1.54744196       5.68435955       0.00179849       0.00089989       0.09284562
C        2.68024811       1.54744196      13.27662505       0.00241298       0.00016789      -0.04202622
C       -0.89341603       1.54744195       3.15844319      -0.00062375       0.00154600       0.09138883
C       -1.78683208       3.09488395      10.75070869      -0.00035198       0.00296525       0.03781476
C       -1.78683208       3.09488395       0.63055283      -0.00206768       0.00399369      -0.20125927
C       -0.89341603       1.54744195       8.22281833      -0.00147864       0.00173267       0.10809740
C       -0.01619816      -0.09543896      18.60955986      -0.00018563       0.00029388       0.00178332
C        1.32488315       0.67920733      18.61055895      -0.00020620       0.00001440       0.00064740
C       -1.35682368       2.22551354      18.61106881       0.00009667       0.00062221       0.00165399
C       -0.01586338       2.99931983      18.60926144       0.00005939       0.00014295       0.00060138
C        2.66397112      -0.09409949      18.61073485      -0.00012418      -0.00025248       0.00112974
C        4.00288337       0.67914396      18.61049485       0.00024991      -0.00036021       0.00081041
C        1.32515015       2.22581744      18.60932024      -0.00000411      -0.00036124      -0.00084049
C        2.66396392       2.99914637      18.60626094       0.00032833      -0.00049442      -0.00194787
Si      -0.89341603       4.64232588       5.05623624       0.00000309       0.00019232      -0.02862461
Si      -1.78683208       6.18976788      12.64850174      -0.00035738      -0.00087495      -0.10996171
Si      -1.78683208       6.18976788       2.52836107       0.00021314      -0.00003420       0.24306875
Si      -0.89341603       4.64232588      10.12062657      -0.00037307      -0.00094411      -0.08097509
Si      -2.67814015       4.64475154      15.16900837      -0.00121613      -0.00093177      -0.00070757
Si      -2.68024811       4.64232589       7.58805938       0.00013190      -0.00002777      -0.10111326
C       -2.68024811       4.64232589       5.68435955      -0.00009436       0.00016404       0.09271527
C       -2.68024811       4.64232589      13.27662505       0.00205123       0.00182060      -0.06169259
C       -0.89341603       4.64232588       3.15844319       0.00001748       0.00108655       0.09119086
C       -1.78683208       6.18976788      10.75070869      -0.00105158      -0.00016481       0.03696115
C       -1.78683208       6.18976788       0.63055283       0.00228057      -0.00144290      -0.20104767
C       -0.89341603       4.64232588       8.22281833       0.00017689       0.00151669       0.10825193
Si      -0.89341603       7.73720981       5.05623624       0.00010619      -0.00005014      -0.02865752
Si       0.89341603       4.64232591      12.64850174       0.00132952      -0.00097496      -0.10954571
Si       0.89341603       4.64232591       2.52836107      -0.00008793       0.00020826       0.24314974
Si      -0.89341603       7.73720981      10.12062657      -0.00076593       0.00111277      -0.08126460
Si      -2.68181205       7.73657106      15.16903566       0.00044223       0.00166016      -0.00079216
Si      -2.68024811       7.73720982       7.58805938       0.00019258      -0.00009410      -0.10111557
C       -2.68024811       7.73720982       5.68435955       0.00194118      -0.00120636       0.09269984
C       -2.68024811       7.73720982      13.27662505       0.00116728      -0.00280893      -0.06125679
C       -0.89341603       7.73720981       3.15844319       0.00092714      -0.00055587       0.09125179
C        0.89341603       4.64232591      10.75070869       0.00114800      -0.00096776       0.03692516
C        0.89341603       4.64232591       0.63055283       0.00008356       0.00254102      -0.20127830
C       -0.89341603       7.73720981       8.22281833       0.00123644      -0.00065332       0.10816940
Si      -3.57366413       6.18976784       5.05623624       0.00011930      -0.00017715      -0.02864775
Si      -4.46708018       7.73720984      12.64850174       0.00090169       0.00040109      -0.10645396
Si      -4.46708018       7.73720984       2.52836107       0.00008073      -0.00034864       0.24322147
Si      -3.57366413       6.18976784      10.12062657       0.00177149      -0.00040983      -0.08101957
Si       0.00063385       6.18611200      15.16974887      -0.00005605       0.00177046      -0.00152646
Si       0.00000000       6.18976786       7.58805938       0.00001183      -0.00007379      -0.10137834
C        0.00000000       6.18976786       5.68435955      -0.00002005      -0.00008330       0.09282865
C        0.00000000       6.18976786      13.27662505       0.00052373      -0.00316863      -0.03975645
C       -3.57366413       6.18976784       3.15844319       0.00130046      -0.00178820       0.09127005
C       -4.46708018       7.73720984      10.75070869       0.00137914      -0.00039621       0.03772708
C       -4.46708018       7.73720984       0.63055283       0.00246517      -0.00391450      -0.20081576
C       -3.57366413       6.18976784       8.22281833       0.00043786      -0.00142182       0.10817582
C       -2.69667127       4.54658239      18.60967592      -0.00007019       0.00056179       0.00219058
C       -1.35550866       5.32098688      18.61105355      -0.00005451       0.00027999       0.00171158
C       -4.03725813       6.86769532      18.61099378      -0.00037590       0.00039184       0.00164988
C       -2.69664226       7.64167192      18.60943940      -0.00021134       0.00008048       0.00190956
C       -0.01583943       4.54774968      18.61067978       0.00018795       0.00001903       0.00065537
C        1.32369067       5.32043013      18.60917349       0.00019746      -0.00032936      -0.00043143
C       -1.35594668       6.86761283      18.61096217      -0.00019849       0.00013653       0.00177972
C       -0.01635032       7.64126389      18.61094271       0.00023603       0.00004782       0.00163111
Si       7.14732829      -0.00000002       5.05623624      -0.00022729       0.00002057      -0.02861329
Si       6.25391224       1.54744198      12.64850174      -0.00152904      -0.00010979      -0.10982004
Si       6.25391224       1.54744198       2.52836107      -0.00004422       0.00012830       0.24313740
Si       7.14732829      -0.00000002      10.12062657      -0.00113309      -0.00106958      -0.08105146
Si       5.36227846       0.00250563      15.16901403      -0.00108243      -0.00105981      -0.00072454
Si       5.36049621       0.00000000       7.58805938      -0.00000874       0.00006685      -0.10112303
C        5.36049621       0.00000000       5.68435955      -0.00006942       0.00015658       0.09272555
C        5.36049621       0.00000000      13.27662505       0.00131178       0.00214919      -0.06164348
C        7.14732829      -0.00000002       3.15844319      -0.00185248       0.00006428       0.09119420
C        6.25391224       1.54744198      10.75070869      -0.00285752       0.00080681       0.03714627
C        6.25391224       1.54744198       0.63055283      -0.00210856       0.00123439      -0.20124873
C        7.14732829      -0.00000002       8.22281833      -0.00157146       0.00040675       0.10823444
Si       7.14732829       3.09488391       5.05623624      -0.00019746       0.00011493      -0.02865674
Si       8.93416034       0.00000002      12.64850174       0.00003265      -0.00081041      -0.10735513
Si       8.93416034       0.00000002       2.52836107      -0.00036047       0.00004011       0.24322430
Si       7.14732829       3.09488391      10.12062657      -0.00105210       0.00129224      -0.08125380
Si       5.35788777       3.09441257      15.16896979      -0.00024554       0.00192447      -0.00083998
Si       5.36049621       3.09488393       7.58805938      -0.00009179       0.00008022      -0.10110040
C        5.36049621       3.09488393       5.68435955       0.00011570      -0.00014347       0.09278340
C        5.36049621       3.09488393      13.27662505      -0.00212630      -0.00143030      -0.06315709
C        7.14732829       3.09488391       3.15844319      -0.00086363       0.00049417       0.09131993
C        8.93416034       0.00000002      10.75070869      -0.00051268      -0.00220524       0.03733062
C        8.93416034       0.00000002       0.63055283      -0.00435905      -0.00006582      -0.20066715
C        7.14732829       3.09488391       8.22281833      -0.00060035       0.00034993       0.10822853
Si       4.46708018       1.54744195       5.05623624       0.00016429       0.00007970      -0.02866317
Si       3.57366413       3.09488395      12.64850174       0.00037024       0.00139585      -0.10995451
Si       3.57366413       3.09488395       2.52836107       0.00009230      -0.00001414       0.24311477
Si       4.46708018       1.54744195      10.12062657       0.00149278       0.00042963      -0.08090105
Si       8.04086312       1.54456851      15.16981423      -0.00036767       0.00161131      -0.00148070
Si       8.04074432       1.54744196       7.58805938      -0.00024708       0.00007199      -0.10136677
C        8.04074432       1.54744196       5.68435955      -0.00182754       0.00096262       0.09273249
C        8.04074432       1.54744196      13.27662505      -0.00218852      -0.00076825      -0.03850561
C        4.46708018       1.54744195       3.15844319       0.00124159       0.00050471       0.09118135
C        3.57366413       3.09488395      10.75070869       0.00175401       0.00186096       0.03698198
C        3.57366413       3.09488395       0.63055283       0.00240835       0.00139611      -0.20156780
C        4.46708018       1.54744195       8.22281833       0.00045457       0.00057978       0.10808892
C        5.34396532      -0.09530783      18.60946394       0.00005142      -0.00012984       0.00203709
C        6.68496285       0.67898729      18.61096825       0.00012213       0.00035250       0.00202809
C        4.00267142       2.22602909      18.60925332       0.00017843      -0.00049262      -0.00071091
C        5.34361935       2.99943537      18.60918290       0.00021700      -0.00019283       0.00071322
C        8.02448298      -0.09421268      18.61094964       0.00003137       0.00034864       0.00186585
C        9.36384435       0.67875178      18.61101736      -0.00009487       0.00053916       0.00183037
C        6.68457262       2.22546590      18.61100299      -0.00003600       0.00026817       0.00184451
C        8.02440855       2.99888641      18.61115187       0.00008613       0.00062761       0.00197229
Si       4.46708018       4.64232588       5.05623624      -0.00001954      -0.00013473      -0.02859941
Si       3.57366413       6.18976788      12.64850174      -0.00159897      -0.00190750      -0.10975011
Si       3.57366413       6.18976788       2.52836107      -0.00008433      -0.00029362       0.24311837
Si       4.46708018       4.64232588      10.12062657      -0.00102330      -0.00144213      -0.08086634
Si       2.68187768       4.64342828      15.16888748      -0.00097779      -0.00173215      -0.00086492
Si       2.68024811       4.64232589       7.58805938       0.00009102       0.00002751      -0.10105695
C        2.68024811       4.64232589       5.68435955      -0.00009050       0.00016738       0.09262116
C        2.68024811       4.64232589      13.27662505       0.00133749       0.00093151      -0.06622390
C        4.46708018       4.64232588       3.15844319       0.00006171      -0.00107318       0.09118854
C        3.57366413       6.18976788      10.75070869      -0.00288889      -0.00123542       0.03669736
C        3.57366413       6.18976788       0.63055283      -0.00217001      -0.00397441      -0.20098545
C        4.46708018       4.64232588       8.22281833       0.00032447      -0.00058056       0.10825527
Si       4.46708018       7.73720981       5.05623624      -0.00018846      -0.00022497      -0.02859658
Si       6.25391224       4.64232591      12.64850174      -0.00024785      -0.00110197      -0.10777602
Si       6.25391224       4.64232591       2.52836107      -0.00011107      -0.00008922       0.24310089
Si       4.46708018       7.73720981      10.12062657      -0.00113488       0.00074845      -0.08121215
Si       2.67851117       7.73657117      15.16901996       0.00060292       0.00153649      -0.00080090
Si       2.68024811       7.73720982       7.58805938      -0.00032833      -0.00009796      -0.10111686
C        2.68024811       7.73720982       5.68435955      -0.00167970      -0.00112023       0.09259725
C        2.68024811       7.73720982      13.27662505      -0.00349464      -0.00333138      -0.06200498
C        4.46708018       7.73720981       3.15844319      -0.00091840      -0.00169796       0.09144488
C        6.25391224       4.64232591      10.75070869       0.00174835      -0.00336712       0.03745737
C        6.25391224       4.64232591       0.63055283      -0.00002982      -0.00264798      -0.20111709
C        4.46708018       7.73720981       8.22281833      -0.00056127      -0.00174784       0.10820076
Si       1.78683208       6.18976784       5.05623624      -0.00012496      -0.00008767      -0.02863823
Si       0.89341603       7.73720984      12.64850174       0.00087546       0.00027639      -0.10698772
Si       0.89341603       7.73720984       2.52836107      -0.00018795      -0.00017843       0.24322919
Si       1.78683208       6.18976784      10.12062657       0.00153623      -0.00038695      -0.08089333
Si       5.36031400       6.18613847      15.16977276      -0.00075359       0.00187922      -0.00154806
Si       5.36049621       6.18976786       7.58805938      -0.00000926      -0.00038567      -0.10136343
C        5.36049621       6.18976786       5.68435955       0.00002982      -0.00219007       0.09274201
C        5.36049621       6.18976786      13.27662505      -0.00048414      -0.00585774      -0.03948212
C        1.78683208       6.18976784       3.15844319      -0.00071451      -0.00060524       0.09115075
C        0.89341603       7.73720984      10.75070869      -0.00059135       0.00102304       0.03776231
C        0.89341603       7.73720984       0.63055283      -0.00210702      -0.00118039      -0.20141945
C        1.78683208       6.18976784       8.22281833      -0.00142542      -0.00029156       0.10818585
C        2.66392953       4.54641422      18.60453816       0.00016198      -0.00048980      -0.00170644
C        4.00417958       5.32059212      18.60917821       0.00000180      -0.00023140      -0.00049108
C        1.32337320       6.86745957      18.61052610       0.00007945      -0.00000771       0.00074896
C        2.66394945       7.64155808      18.60933913      -0.00003368       0.00015529       0.00119119
C        5.34379445       4.54778115      18.61063548      -0.00006402      -0.00006402       0.00059110
C        6.68325763       5.32086111      18.61104104      -0.00020260       0.00011364       0.00161645
C        4.00452552       6.86728764      18.61056725      -0.00024657       0.00004962       0.00063583
C        5.34428469       7.64118703      18.61101944      -0.00034787       0.00029028       0.00144702
C        2.63808715       3.79886931      22.94231122      -0.00077673      -0.00016738      -0.00732044
O        2.63105693       3.78862944      24.11330668      -0.00075488      -0.00035044       0.02132987
O        2.64524538       3.80905848      21.76548469      -0.00072762      -0.00001311       0.00347073
