179
Lattice="10.720992125991367 0.0 0.0 -5.360496062995684 9.284647205911675 0.0 0.0 0.0 34.99999747733031" Properties=species:S:1:pos:R:3:forces:R:3 energy=-75886.02685996324 free_energy=-75886.02685996324 pbc="T T T"
Si       1.78683208      -0.00000002       5.05623624      -0.00054019       0.00021289      -0.06530191
Si       0.89341603       1.54744198      12.64850174       0.00171647       0.00135703       0.15425616
Si       0.89341603       1.54744198       2.52836107      -0.00040881      -0.00077416       0.00868210
Si       1.78683208      -0.00000002      10.12062657      -0.00314215      -0.00488510      -0.06015302
Si      -0.02342027      -0.03478147      15.20604696       0.00284981      -0.00334680      -0.00114620
Si       0.00000000       0.00000000       7.58805938      -0.00031702      -0.00047951      -0.06610846
C        0.00000000       0.00000000       5.68435955      -0.00018101       0.00007739       0.07505693
C        0.00000000       0.00000000      13.27662505      -0.02492170      -0.03555527       0.25269342
C        1.78683208      -0.00000002       3.15844319       0.00122950       0.00013344       0.08790859
C        0.89341603       1.54744198      10.75070869      -0.00187048      -0.00210342       0.00431971
C        0.89341603       1.54744198       0.63055283      -0.00433668      -0.00710164      -0.43282028
C        1.78683208      -0.00000002       8.22281833       0.00201112       0.00124904       0.10048694
Si       1.78683208       3.09488391       5.05623624      -0.00051396      -0.00088189      -0.06507488
Si       3.57366413       0.00000002      12.64850174       0.00013164       0.00282950       0.14823721
Si       3.57366413       0.00000002       2.52836107      -0.00104644       0.00002365       0.00907702
Si       1.78683208       3.09488391      10.12062657       0.00182960       0.00460047      -0.05704841
Si       0.02087177       3.12904635      15.20583899      -0.00099270       0.00314215      -0.00081890
Si       0.00000000       3.09488393       7.58805938       0.00028436      -0.00017509      -0.06682117
C        0.00000000       3.09488393       5.68435955       0.00022986       0.00126061       0.07473837
C        0.00000000       3.09488393      13.27662505       0.02164303       0.03645979       0.24881645
C        1.78683208       3.09488391       3.15844319       0.00046126       0.00105081       0.08828525
C        3.57366413       0.00000002      10.75070869      -0.00046563      -0.00370907       0.00274260
C        3.57366413       0.00000002       0.63055283      -0.00827612      -0.00006428      -0.43233280
C        1.78683208       3.09488391       8.22281833      -0.00015607      -0.00085206       0.09944590
Si      -0.89341603       1.54744195       5.05623624       0.00043529      -0.00036330      -0.06528982
Si      -1.78683208       3.09488395      12.64850174       0.00095311       0.00093717       0.14832283
Si      -1.78683208       3.09488395       2.52836107       0.00050985      -0.00090091       0.00888136
Si      -0.89341603       1.54744195      10.12062657      -0.00173524      -0.00459173      -0.05990542
Si       2.70291451       1.58315948      15.20754202      -0.00025634       0.00004294      -0.01384616
Si       2.68024811       1.54744196       7.58805938      -0.00023371       0.00022240      -0.06700089
C        2.68024811       1.54744196       5.68435955       0.00109195       0.00057413       0.07464478
C        2.68024811       1.54744196      13.27662505       0.02413803       0.03733705       0.26857049
C       -0.89341603       1.54744195       3.15844319      -0.00037230       0.00086955       0.08770701
C       -1.78683208       3.09488395      10.75070869      -0.00101867       0.00006505       0.00300870
C       -1.78683208       3.09488395       0.63055283       0.00391116      -0.00747343      -0.43246007
C       -0.89341603       1.54744195       8.22281833      -0.00019052       0.00231965       0.09997169
C        0.04154574       0.07690009      18.87118338       0.00098859      -0.00231965       0.00036021
C        1.38230722       0.85049980      18.87070862       0.00346868      -0.00225949       0.00044352
C       -1.29871335       2.39844969      18.87135840       0.00433308      -0.00212939       0.00427677
C        0.04186201       3.17239270      18.86848744      -0.00194504      -0.00085309      -0.00308250
C        2.72231327       0.07700698      18.87113913      -0.00391270       0.00337020      -0.00199183
C        4.06249015       0.85089140      18.86943426       0.00304187       0.00397518       0.00417701
C        1.38235739       2.39715915      18.86639777      -0.00032653       0.00496146       0.01357568
C        2.72307888       3.17008977      18.86117078      -0.00701191       0.00616756       0.01549013
Si      -0.89341603       4.64232588       5.05623624      -0.00017535      -0.00071374      -0.06497512
Si      -1.78683208       6.18976788      12.64850174       0.00047900       0.00024785       0.03720438
Si      -1.78683208       6.18976788       2.52836107      -0.00048260       0.00018409       0.00924852
Si      -0.89341603       4.64232588      10.12062657       0.00208157       0.00329281      -0.05709443
Si      -2.66217473       4.67734825      15.20594840       0.00428526      -0.00024143      -0.00190262
Si      -2.68024811       4.64232589       7.58805938       0.00024451       0.00060318      -0.06671447
C       -2.68024811       4.64232589       5.68435955      -0.00031367       0.00014167       0.07481190
C       -2.68024811       4.64232589      13.27662505       0.01848752       0.03633817       0.24874652
C       -0.89341603       4.64232588       3.15844319       0.00010027       0.00069060       0.08894680
C       -1.78683208       6.18976788      10.75070869       0.00064612       0.00083227      -0.02044567
C       -1.78683208       6.18976788       0.63055283      -0.00424181       0.00238727      -0.43208906
C       -0.89341603       4.64232588       8.22281833      -0.00091891      -0.00086261       0.09974338
Si      -0.89341603       7.73720981       5.05623624      -0.00027562       0.00043452      -0.06496741
Si       0.89341603       4.64232591      12.64850174      -0.00130843       0.00054585       0.03481299
Si       0.89341603       4.64232591       2.52836107       0.00002237      -0.00054302       0.00923283
Si      -0.89341603       7.73720981      10.12062657      -0.00304264      -0.00331004      -0.05977943
Si      -2.69796670       7.70147388      15.20607275      -0.00393533      -0.00005348      -0.00151592
Si      -2.68024811       7.73720982       7.58805938      -0.00086055      -0.00012136      -0.06588452
C       -2.68024811       7.73720982       5.68435955       0.00144290      -0.00112126       0.07544774
C       -2.68024811       7.73720982      13.27662505      -0.01711712      -0.03707017       0.25144283
C       -0.89341603       7.73720981       3.15844319       0.00034530      -0.00016995       0.08871206
C        0.89341603       4.64232591      10.75070869       0.00110249       0.00117962      -0.02078248
C        0.89341603       4.64232591       0.63055283       0.00038875      -0.00485321      -0.43184094
C       -0.89341603       7.73720981       8.22281833       0.00128838       0.00065820       0.10022957
Si      -3.57366413       6.18976784       5.05623624      -0.00048851       0.00024194      -0.06506074
Si      -4.46708018       7.73720984      12.64850174      -0.00164551      -0.00144599       0.03873444
Si      -4.46708018       7.73720984       2.52836107      -0.00047797       0.00072428       0.00845610
Si      -3.57366413       6.18976784      10.12062657       0.00287964       0.00487558      -0.05698079
Si      -0.01710561       6.15914478      15.20785134      -0.00558135      -0.01057855      -0.01541068
Si       0.00000000       6.18976786       7.58805938      -0.00022677      -0.00044454      -0.06593363
C        0.00000000       6.18976786       5.68435955      -0.00016532      -0.00032962       0.07526236
C        0.00000000       6.18976786      13.27662505      -0.01682581      -0.03055525       0.27039881
C       -3.57366413       6.18976784       3.15844319       0.00069420      -0.00094771       0.08826237
C       -4.46708018       7.73720984      10.75070869       0.00244769       0.00211628      -0.01954527
C       -4.46708018       7.73720984       0.63055283      -0.00447603       0.00695406      -0.43299974
C       -3.57366413       6.18976784       8.22281833      -0.00060781      -0.00220652       0.09938754
C       -2.63811180       4.71936072      18.87027820      -0.00385434      -0.00597319       0.00851884
C       -1.29768457       5.49337997      18.87143408       0.00277936      -0.00506173       0.00094977
C       -3.97951392       7.03982387      18.87181041       0.00850290      -0.00122642       0.00581224
C       -2.63817013       7.81402896      18.87005268       0.00034967      -0.00108166       0.01436115
C        0.04234225       4.71950190      18.86940055      -0.00546951       0.00054610      -0.00190236
C        1.38109175       5.49307218      18.86692432       0.00094411       0.00365277       0.00335503
C       -1.29783727       7.04020263      18.87146242       0.00191599       0.00241221       0.00904488
C        0.04211700       7.81359825      18.87218660      -0.00413896       0.00201009      -0.00140099
Si       7.14732829      -0.00000002       5.05623624       0.00048465      -0.00030673      -0.06509390
Si       6.25391224       1.54744198      12.64850174       0.00132309      -0.00021160       0.03613891
Si       6.25391224       1.54744198       2.52836107       0.00045740      -0.00037307       0.00919915
Si       7.14732829      -0.00000002      10.12062657       0.00287526       0.00383403      -0.05725615
Si       5.37663190       0.03629640      15.20593278       0.00326556       0.00087006      -0.00184502
Si       5.36049621       0.00000000       7.58805938       0.00040263       0.00055716      -0.06673761
C        5.36049621       0.00000000       5.68435955      -0.00024040       0.00002340       0.07486230
C        5.36049621       0.00000000      13.27662505       0.01678930       0.03758259       0.24870641
C        7.14732829      -0.00000002       3.15844319      -0.00087366       0.00003574       0.08863544
C        6.25391224       1.54744198      10.75070869      -0.00019103       0.00124699      -0.02069661
C        6.25391224       1.54744198       0.63055283       0.00375407      -0.00222863      -0.43206463
C        7.14732829      -0.00000002       8.22281833      -0.00197538      -0.00133929       0.09962819
Si       7.14732829       3.09488391       5.05623624       0.00049674      -0.00001851      -0.06496869
Si       8.93416034       0.00000002      12.64850174       0.00026020       0.00061167       0.03681743
Si       8.93416034       0.00000002       2.52836107       0.00083458      -0.00001568       0.00857232
Si       7.14732829       3.09488391      10.12062657      -0.00231579      -0.00378004      -0.05976221
Si       5.34228517       3.05736008      15.20570694      -0.00501365       0.00064535       0.00079936
Si       5.36049621       3.09488393       7.58805938      -0.00024014      -0.00046897      -0.06579016
C        5.36049621       3.09488393       5.68435955       0.00013575      -0.00023654       0.07545802
C        5.36049621       3.09488393      13.27662505      -0.01792393      -0.03874884       0.24663101
C        7.14732829       3.09488391       3.15844319      -0.00059598       0.00040263       0.08862670
C        8.93416034       0.00000002      10.75070869      -0.00045123       0.00070423      -0.01987051
C        8.93416034       0.00000002       0.63055283       0.00858594      -0.00013678      -0.43294883
C        7.14732829       3.09488391       8.22281833       0.00038747       0.00113926       0.10017815
Si       4.46708018       1.54744195       5.05623624      -0.00057413      -0.00053042      -0.06493810
Si       3.57366413       3.09488395      12.64850174      -0.00072351      -0.00246209       0.03711670
Si       3.57366413       3.09488395       2.52836107      -0.00051833      -0.00027177       0.00909399
Si       4.46708018       1.54744195      10.12062657       0.00304162       0.00401118      -0.05681264
Si       8.02403305       1.51823798      15.20801142      -0.00638893      -0.00901712      -0.01668363
Si       8.04074432       1.54744196       7.58805938       0.00035301      -0.00075770      -0.06601924
C        8.04074432       1.54744196       5.68435955      -0.00161517       0.00039595       0.07517109
C        8.04074432       1.54744196      13.27662505      -0.01709064      -0.02891180       0.27316223
C        4.46708018       1.54744195       3.15844319       0.00066617       0.00031959       0.08852514
C        3.57366413       3.09488395      10.75070869       0.00198463       0.00358412      -0.02034103
C        3.57366413       3.09488395       0.63055283      -0.00437885      -0.00261198      -0.43232020
C        4.46708018       1.54744195       8.22281833      -0.00071605      -0.00123439       0.09951532
C        5.40276290       0.07728326      18.87053690      -0.00058647      -0.00229985      -0.00095002
C        6.74268553       0.85149722      18.87105057       0.00150358      -0.00442255       0.00475448
C        4.06296629       2.39710291      18.86480892       0.00330978      -0.00097599       0.00603284
C        5.40308146       3.17160913      18.86745560      -0.00396207      -0.00309098       0.00323316
C        8.08281040       0.07760662      18.87098544      -0.00260530       0.00002828       0.00945369
C        9.42215139       0.85110927      18.87117797       0.00304727       0.00143005       0.01171497
C        6.74311711       2.39823202      18.87078010      -0.00331775      -0.00013524       0.00370959
C        8.08316161       3.17171485      18.87153012      -0.00700934       0.00025043       0.00446241
Si       4.46708018       4.64232588       5.05623624       0.00011339       0.00065049      -0.06500829
Si       3.57366413       6.18976788      12.64850174       0.00324345       0.00314600       0.14729464
Si       3.57366413       6.18976788       2.52836107       0.00056024       0.00087135       0.00909605
Si       4.46708018       4.64232588      10.12062657      -0.00282230      -0.00420787      -0.05997561
Si       2.65766022       4.60970754      15.20537517       0.00238187      -0.00455420       0.00409962
Si       2.68024811       4.64232589       7.58805938      -0.00031496      -0.00050574      -0.06578707
C        2.68024811       4.64232589       5.68435955      -0.00029156      -0.00011544       0.07543077
C        2.68024811       4.64232589      13.27662505      -0.02373411      -0.03282039       0.24451602
C        4.46708018       4.64232588       3.15844319      -0.00003651      -0.00055150       0.08898717
C        3.57366413       6.18976788      10.75070869      -0.00300639      -0.00421070       0.00259939
C        3.57366413       6.18976788       0.63055283       0.00393842       0.00754387      -0.43213662
C        4.46708018       4.64232588       8.22281833       0.00061552       0.00050676       0.10069263
Si       4.46708018       7.73720981       5.05623624       0.00013113       0.00025274      -0.06522632
Si       6.25391224       4.64232591      12.64850174       0.00037770       0.00345376       0.15222036
Si       6.25391224       4.64232591       2.52836107       0.00004859       0.00055124       0.00927963
Si       4.46708018       7.73720981      10.12062657       0.00230319       0.00541346      -0.05697050
Si       2.70350637       7.76880077      15.20602489      -0.00151875       0.00321671      -0.00297502
Si       2.68024811       7.73720982       7.58805938       0.00098293       0.00087520      -0.06679520
C        2.68024811       7.73720982       5.68435955      -0.00119993      -0.00085952       0.07477642
C        2.68024811       7.73720982      13.27662505       0.02365441       0.03209739       0.25005727
C        4.46708018       7.73720981       3.15844319      -0.00067774      -0.00099013       0.08753372
C        6.25391224       4.64232591      10.75070869      -0.00134726      -0.00418627       0.00326273
C        6.25391224       4.64232591       0.63055283       0.00031882       0.00448863      -0.43214922
C        4.46708018       7.73720981       8.22281833      -0.00112640      -0.00269297       0.09913043
Si       1.78683208       6.18976784       5.05623624       0.00049082       0.00039929      -0.06495635
Si       0.89341603       7.73720984      12.64850174       0.00120688       0.00142953       0.15255975
Si       0.89341603       7.73720984       2.52836107       0.00043272       0.00030442       0.00907008
Si       1.78683208       6.18976784      10.12062657      -0.00125701      -0.00404692      -0.05976658
Si       5.38022098       6.22601505      15.20790307      -0.00070705       0.00009976      -0.01759303
Si       5.36049621       6.18976786       7.58805938       0.00030390       0.00130869      -0.06696798
C        5.36049621       6.18976786       5.68435955      -0.00008922      -0.00178409       0.07447895
C        5.36049621       6.18976786      13.27662505       0.02011837       0.03631015       0.27100224
C        1.78683208       6.18976784       3.15844319      -0.00025711      -0.00047745       0.08873494
C        0.89341603       7.73720984      10.75070869      -0.00096622      -0.00101996       0.00384200
C        0.89341603       7.73720984       0.63055283       0.00402480       0.00196175      -0.43222455
C        1.78683208       6.18976784       8.22281833      -0.00012084       0.00082764       0.10037484
C        2.72250760       4.71905624      18.86171058      -0.00177740       0.00307015       0.02123526
C        4.06274351       5.49232434      18.86891862       0.00518592       0.00116137       0.00257625
C        1.38114210       7.04016179      18.87057987       0.00422946      -0.00420273       0.00401735
C        2.72169880       7.81406880      18.86993436       0.00159357      -0.00347639       0.00771151
C        5.40281423       4.71864318      18.87035592      -0.00363323       0.00177972      -0.00119402
C        6.74198907       5.49257738      18.87145136       0.00264078      -0.00050265       0.00693169
C        4.06235212       7.03973842      18.87188625       0.00461436       0.00480719      -0.00293851
C        5.40202898       7.81305883      18.87274233       0.00053787       0.00472954      -0.00216873
C        2.62158526       3.79769457      22.13076285      -0.01443623       0.00404435       0.00739501
O        1.49915641       4.14549407      22.10403413      -0.00433925      -0.00272923       0.00664990
O        3.74388798       3.44964996      22.14341776       0.01907630       0.00096879       0.00730759
