101
Lattice="17.265850017958673 -0.00010359510010775204 0.0 -8.633011338229426 14.952692293502695 0.0 -0.0 0.0 15.000000722551901" Properties=species:S:1:pos:R:3:forces:R:3 energy=-26237.116911964855 free_energy=-26237.116911964855 pbc="T T T"
C        1.20421803       0.66158968       5.00995918      -0.00302336      -0.00443901      -0.00372450
C       -0.02916997       1.37358869       5.00996388       0.00296114       0.00336455      -0.00385768
C       -0.02936695       2.79752167       5.00262793       0.00025351       0.00099605      -0.00295780
C       -1.26268257       3.50957926       5.00370787       0.00314369       0.00277345      -0.00093845
C       -1.26225097       4.93355335       4.99904327      -0.00244949       0.00355609      -0.00160308
C       -2.49551145       5.64573888       5.00577267      -0.00357383      -0.00148558      -0.00256879
C       -2.49543754       7.06970337       5.00564210      -0.00093254       0.00707902      -0.00479511
C       -3.72876125       7.78203566       5.01097808      -0.00147993      -0.00703608      -0.00432408
C       -3.72869961       9.20601369       5.00956081       0.00133363       0.00169461      -0.00211268
C       -4.96196605       9.91823036       5.00906480      -0.00084306      -0.00275931      -0.00023963
C       -4.96159506      11.34221665       5.00749270      -0.00255953      -0.00311746       0.00543146
C       -6.19490010      12.05428101       5.00767169      -0.00409500       0.00136886       0.00307015
C       -6.19519683      13.47827008       5.00931598      -0.00145164      -0.00476220       0.00267163
C       -7.42858601      14.19026504       5.01171510       0.00221501       0.00519877      -0.00202731
C        3.67075301       0.66130843       5.00370646       0.00082301      -0.00166145      -0.00086955
C        2.43741656       1.37325395       5.00262356       0.00286755       0.00677846      -0.00305910
C        2.43717855       2.79726696       4.98998390       0.00283361       0.00588654      -0.00117114
C        1.20392706       3.50927599       4.98998839       0.00560192       0.00608220      -0.00131589
C        1.20446324       4.93332427       4.97628574      -0.00218415       0.00882634       0.00073251
C       -0.02881992       5.64532499       4.98464525      -0.00048440       0.00326170      -0.00058287
C       -0.02863905       7.06939833       4.97986212      -0.00193450       0.01071430       0.00074613
C       -1.26196876       7.78156305       4.99449153       0.00078907      -0.00236413      -0.00259090
C       -1.26191465       9.20562108       4.99553143      -0.00130355       0.00654217      -0.00147016
C       -2.49517761       9.91775548       5.00471860       0.00125624       0.00067003      -0.00049571
C       -2.49483314      11.34183175       5.00547639      -0.00492572       0.00168047       0.00212887
C       -3.72814674      12.05383282       5.00702346      -0.00522782       0.00639562       0.00704122
C       -3.72853547      13.47794321       5.00739969       0.00069600      -0.00207745       0.00569114
C       -4.96190381      14.18986189       5.00763103      -0.00045946       0.01035897       0.00296500
C        6.13708433       0.66168058       5.00577389       0.00490232      -0.00600533      -0.00252945
C        4.90375754       1.37358683       4.99904774       0.00120379       0.00209416      -0.00163548
C        4.90337434       2.79766888       4.98464745       0.00786346       0.00153623      -0.00054147
C        3.67020445       3.50974611       4.97628886       0.00528645       0.00091711       0.00070937
C        3.67064720       4.93381523       4.95606387       0.00340234       0.00603592       0.00442307
C        2.43754156       5.64582871       4.95606107       0.00072197       0.00000823       0.00450971
C        2.43800343       7.06995988       4.94428593       0.00349336       0.00639870       0.00587060
C        1.20459978       7.78181927       4.96188560       0.00293954      -0.00604723       0.00350416
C        1.20446365       9.20596893       4.96793381       0.00329718       0.00172521       0.00201369
C       -0.02874775       9.91803129       4.98628781       0.00424463      -0.00483342      -0.00059084
C       -0.02840397      11.34214160       4.99545312      -0.00299636      -0.00131075      -0.00101584
C       -1.26170114      12.05409611       5.00464128      -0.00204223       0.00039595      -0.00036972
C       -1.26211214      13.47825096       5.00948212       0.00221372      -0.00493369      -0.00184040
C       -2.49548964      14.19014770       5.00899108      -0.00021443       0.00582483       0.00017921
C        8.60375631       0.66178220       5.01097932       0.00018975      -0.00607269      -0.00432228
C        7.37031089       1.37369132       5.00564658       0.00078856       0.00357512      -0.00485656
C        7.36994998       2.79783155       4.99449107       0.00325579       0.00017869      -0.00247880
C        6.13665075       3.50987977       4.97986291       0.00425955       0.00134520       0.00078599
C        6.13689619       4.93404077       4.96188339      -0.00151541       0.00478765       0.00351187
C        4.90381194       5.64639177       4.94428404      -0.00133595      -0.00020954       0.00598141
C        4.90378417       7.07010461       4.92956758       0.00129686       0.00472517       0.00637299
C        3.67103377       7.78193803       4.92956868      -0.00082532      -0.00430865       0.00637659
C        3.67100149       9.20565485       4.94391105       0.00196458       0.00036947       0.00604569
C        2.43795064       9.91801409       4.96153693       0.00206305      -0.00488767       0.00400964
C        2.43823782      11.34216556       4.97958878      -0.00401375      -0.00117191      -0.00004062
C        1.20493202      12.05416961       4.99441112      -0.00327070       0.00028436      -0.00243612
C        1.20457639      13.47829851       5.00560107      -0.00046074      -0.00365945      -0.00474780
C       -0.02886113      14.19021790       5.01098052      -0.00002057       0.00668255      -0.00447449
C       11.07035693       0.66190026       5.00906590       0.00063840      -0.00565797      -0.00030030
C        9.83699174       1.37378644       5.00955932      -0.00293569       0.00427189      -0.00211062
C        9.83656191       2.79795272       5.00470971       0.00200597      -0.00042963      -0.00049545
C        8.60326372       3.50991824       4.99553250       0.00258987       0.00117191      -0.00152672
C        8.60359055       4.93404118       4.98628891      -0.00431637       0.00469843      -0.00049057
C        7.37037597       5.64609692       4.96792908      -0.00357486      -0.00179849       0.00206562
C        7.37022151       7.07025437       4.96154182      -0.00323008       0.00614571       0.00391759
C        6.13682702       7.78207982       4.94391577      -0.00376564      -0.00592022       0.00589914
C        6.13728411       9.20619937       4.95556311      -0.00094025       0.00011339       0.00411351
C        4.90416305       9.91822040       4.95556216      -0.00336532      -0.00623955       0.00396001
C        4.90464271      11.34233698       4.97557938      -0.00546976      -0.00110815       0.00126730
C        3.67148283      12.05443551       4.98409653      -0.00791900      -0.00232813      -0.00075848
C        3.67109843      13.47851152       4.99875234      -0.00089886      -0.00290920      -0.00174629
C        2.43777995      14.19036931       5.00567916      -0.00528593       0.00621153      -0.00274054
C       13.53674793       0.66220405       5.00767109       0.00040315      -0.01032966       0.00310229
C       12.30339414       1.37412229       5.00748784      -0.00060010       0.00210779       0.00547285
C       12.30298225       2.79822706       5.00701499       0.00540163      -0.00633314       0.00697412
C       11.06968280       3.51024892       5.00546624       0.00498717      -0.00138968       0.00218955
C       11.06999275       4.93432468       5.00463691      -0.00124287      -0.00072814      -0.00030776
C        9.83674011       5.64646371       4.99545420       0.00140845      -0.00679183      -0.00100350
C        9.83673537       7.07052014       4.99442017      -0.00059650       0.00228340      -0.00256622
C        8.60343427       7.78270677       4.97958649       0.00200315      -0.01042017       0.00015272
C        8.60368356       9.20678341       4.98410632      -0.00020003      -0.00378004      -0.00090297
C        7.37038456       9.91876288       4.97558835       0.00217181      -0.00907471       0.00123259
C        7.37090647      11.34279832       4.98957000      -0.00591997      -0.00557184      -0.00185788
C        6.13766498      12.05479375       4.98956096      -0.00216333      -0.00568805      -0.00170593
C        6.13742485      13.47880322       5.00247989      -0.00314960      -0.00694429      -0.00282436
C        4.90409329      14.19076373       5.00369162      -0.00012058       0.00190596      -0.00164962
C       16.00343641       0.66181606       5.01171634      -0.00211936      -0.00483265      -0.00207925
C       14.77003814       1.37380190       5.00930974       0.00153906       0.00465678       0.00274362
C       14.76973775       2.79779185       5.00763462       0.00420452      -0.00134160       0.00296474
C       13.53642850       3.50987093       5.00739859       0.00234459       0.00328098       0.00566183
C       13.53677937       4.93386322       5.00898922       0.00077159       0.00304676       0.00016275
C       12.30349640       5.64608209       5.00947863      -0.00154061      -0.00258679      -0.00177997
C       12.30351922       7.07005772       5.01098644       0.00188950       0.00734204      -0.00450663
C       11.07019128       7.78237864       5.00560577       0.00065049      -0.00675275      -0.00469946
C       11.07032845       9.20635614       5.00567925       0.00386231       0.00097702      -0.00278528
C        9.83711024       9.91855253       4.99875183       0.00158894      -0.00379109      -0.00173138
C        9.83752283      11.34250346       5.00368646      -0.00308430      -0.00215124      -0.00163676
C        8.60420121      12.05454464       5.00248167      -0.00046614      -0.00126498      -0.00276368
C        8.60402277      13.47847273       5.00994140      -0.00289455      -0.00300485      -0.00372476
C        7.37061374      14.19048377       5.00993828       0.00319691       0.00461436      -0.00364402
C        4.31915357       7.48080983       9.24610665      -0.00133569      -0.00154472      -0.00849775
O        4.31462734       7.47331787      10.41800723       0.00051088       0.00052476       0.00511701
O        4.32338892       7.48792108       8.07273689       0.00042963       0.00039081      -0.00834863
