101
Lattice="17.265850017958673 -0.00010359510010775204 0.0 -8.633011338229426 14.952692293502695 0.0 -0.0 0.0 15.000000722551901" Properties=species:S:1:pos:R:3:forces:R:3 energy=-26515.580111935873 free_energy=-26515.580111935873 pbc="T T T"
C        1.20625590       0.66513941       5.01789576       0.00215458       0.00144830       0.00074871
C       -0.02705306       1.37719411       5.01785169       0.00027974       0.00245412       0.00076002
C       -0.02702111       2.80134399       5.00878023       0.00235410      -0.00093922      -0.00059675
C       -1.26031442       3.51333370       5.00587534       0.00026302       0.00231811       0.00193398
C       -1.26034185       4.93744944       4.99641717       0.00299611       0.00007919      -0.00254642
C       -2.49354651       5.64960842       4.99565859       0.00013678      -0.00358489      -0.00028154
C       -2.49337181       7.07363424       4.99162493      -0.00248163       0.00140048      -0.00097908
C       -3.72683814       7.78551496       4.99389199       0.00046486      -0.00268192       0.00108192
C       -3.72699716       9.20948433       4.99537800       0.00120173       0.00450252      -0.00006865
C       -4.96031193       9.92149355       5.00045729       0.00046023       0.00064895       0.00198052
C       -4.96024606      11.34554422       5.00549161       0.00156092       0.00193064      -0.00009693
C       -6.19347935      12.05753055       5.01192072      -0.00145833       0.00212270       0.00436599
C       -6.19346672      13.48163196       5.01602266       0.00159126       0.00140845      -0.00248600
C       -7.42670876      14.19372149       5.02051397      -0.00121922       0.00104181       0.00173909
C        3.67283712       0.66516223       5.00602446       0.00187048       0.00149664       0.00203863
C        2.43958875       1.37724110       5.00886895      -0.00185531       0.00149021      -0.00067543
C        2.43961337       2.80139351       4.99735388       0.00206640      -0.00089320      -0.00136654
C        1.20631487       3.51343876       4.99731316      -0.00171158       0.00149870      -0.00134777
C        1.20633508       4.93757692       4.98289794       0.00426983      -0.00164756       0.00174141
C       -0.02701483       5.64950834       4.98557528       0.00111663      -0.00031830      -0.00041832
C       -0.02665658       7.07361787       4.97871179      -0.00248317       0.00042500      -0.00073482
C       -1.26003431       7.78575675       4.98530035      -0.00191290      -0.00666019      -0.00065306
C       -1.26028971       9.20973811       4.98519991       0.00051679       0.00062118      -0.00133980
C       -2.49372142       9.92167402       4.99210965       0.00210959      -0.00300691      -0.00142028
C       -2.49376452      11.34569530       4.99478507       0.00154215       0.00121253       0.00273771
C       -3.72699527      12.05773332       5.00224916      -0.00001106      -0.00161620      -0.00191933
C       -3.72686909      13.48181165       5.00374867       0.00063969      -0.00064818       0.00366485
C       -4.96015168      14.19377864       5.01003204      -0.00202294       0.00003959       0.00149818
C        6.13952129       0.66528884       4.99583246      -0.00328047      -0.00174706      -0.00030108
C        4.90616964       1.37720144       4.99657440      -0.00140202       0.00257650      -0.00255593
C        4.90616517       2.80133015       4.98568332      -0.00099450       0.00063789      -0.00046871
C        3.67293680       3.51347890       4.98295630      -0.00335169       0.00309407       0.00179000
C        3.67290841       4.93764413       4.96553244       0.00174681      -0.00074973      -0.00457605
C        2.43970358       5.64963205       4.96551129      -0.00118065       0.00147401      -0.00457811
C        2.44030055       7.07369233       4.95221750      -0.00024451       0.00170464      -0.00578370
C        1.20685067       7.78542694       4.96611031      -0.00364994      -0.00144265      -0.00570811
C        1.20646353       9.20943849       4.96942061      -0.00254771       0.00240372       0.00012727
C       -0.02693994       9.92163455       4.98028617       0.00127552      -0.00313289      -0.00179952
C       -0.02705554      11.34563595       4.98605535      -0.00119531      -0.00038567      -0.00334449
C       -1.26044095      12.05764838       4.99180132       0.00351855      -0.00061629       0.00426263
C       -1.26032724      13.48172105       4.99500828      -0.00213144      -0.00011364      -0.00285727
C       -2.49354353      14.19387092       4.99848598      -0.00182625      -0.00055947       0.00221526
C        8.60591061       0.66518062       4.99394939      -0.00263538      -0.00104438       0.00103461
C        7.37267244       1.37745964       4.99172252       0.00239293      -0.00150590      -0.00093871
C        7.37271346       2.80162873       4.98534566      -0.00473032      -0.00520468      -0.00063352
C        6.13929616       3.51369439       4.97877985       0.00157480      -0.00176558      -0.00077236
C        6.13898079       4.93785290       4.96613429       0.00070423      -0.00410991      -0.00565360
C        4.90587848       5.65018341       4.95224293       0.00160874       0.00097959      -0.00585440
C        4.90579900       7.07372103       4.93640915       0.00012804      -0.00227980       0.00359517
C        3.67315318       7.78539076       4.93640278      -0.00186045      -0.00098139       0.00360880
C        3.67296400       9.20884972       4.95376096      -0.00124853      -0.00134906      -0.01069322
C        2.43990277       9.92115384       4.96733173       0.00059984       0.00092997      -0.00182625
C        2.43965972      11.34526063       4.98166185      -0.00230217       0.00186276       0.00052322
C        1.20630230      12.05744782       4.98759821       0.00228314       0.00115957      -0.00314446
C        1.20626799      13.48155095       4.99363760      -0.00340774      -0.00042783       0.00242378
C       -0.02706785      14.19372701       4.99445914       0.00306578       0.00049365      -0.00160000
C       11.07244882       0.66494793       5.00035207       0.00027408       0.00062812       0.00202783
C        9.83917832       1.37703443       4.99532185       0.00320179       0.00306733      -0.00005965
C        9.83930947       2.80117945       4.99201016      -0.00371062       0.00021777      -0.00140614
C        8.60604218       3.51339825       4.98516229       0.00013858       0.00062683      -0.00137066
C        8.60587932       4.93745740       4.98023147      -0.00322005      -0.00053222      -0.00184605
C        7.37240447       5.64951938       4.96940487       0.00305113      -0.00091840       0.00017072
C        7.37203946       7.07356892       4.96732326       0.00073379       0.00088009      -0.00182060
C        6.13864537       7.78528359       4.95376542      -0.00092277      -0.00170978      -0.01068628
C        6.13903103       9.20918950       4.96883902       0.00114440      -0.00100942      -0.00490335
C        4.90590475       9.92114333       4.96883324      -0.00153958       0.00026534      -0.00491158
C        4.90608014      11.34521181       4.98775657      -0.00100916      -0.00024683       0.00572328
C        3.67285756      12.05735282       4.99037574      -0.00082095       0.00075256      -0.00236490
C        3.67276901      13.48144246       5.00126183      -0.00049108       0.00057927      -0.00651158
C        2.43946828      14.19352385       4.99875362       0.00167687       0.00279248       0.00154600
C       13.53887685       0.66499592       5.01176383       0.00259604      -0.00019540       0.00441150
C       12.30567329       1.37702970       5.00532386       0.00076850       0.00214019      -0.00015632
C       12.30581619       2.80115158       5.00204574      -0.00147350      -0.00089860      -0.00199389
C       11.07256352       3.51315023       4.99460637       0.00021520       0.00177740       0.00277911
C       11.07246296       4.93721373       4.99163197      -0.00229522       0.00268835       0.00429143
C        9.83915411       5.64935421       4.98594902       0.00014604      -0.00131435      -0.00332367
C        9.83891213       7.07337566       4.98753890       0.00001517       0.00259090      -0.00312620
C        8.60547128       7.78540714       4.98165433       0.00249037      -0.00099270       0.00049005
C        8.60555208       9.20943479       4.99040724       0.00127707      -0.00024837      -0.00236747
C        7.37222015       9.92137593       4.98778227       0.00005091      -0.00103127       0.00571068
C        7.37247307      11.34546396       5.00325930       0.00006068      -0.00193321      -0.00339977
C        6.13924602      12.05747625       5.00323528      -0.00188488      -0.00099425      -0.00338023
C        6.13920218      13.48158153       5.01353789       0.00100427      -0.00210085      -0.00103718
C        4.90595378      14.19360753       5.00989196       0.00013138       0.00010490       0.00454263
C       16.00546575       0.66507433       5.02043649       0.00173858      -0.00046743       0.00166633
C       14.77216785       1.37705893       5.01586843       0.00043760       0.00198258      -0.00245232
C       14.77224567       2.80121523       5.00984650       0.00111894      -0.00172752       0.00144265
C       13.53903269       3.51329334       5.00352324      -0.00093331       0.00019746       0.00373453
C       13.53902409       4.93741112       4.99827611       0.00039826      -0.00177432       0.00221835
C       12.30568261       5.64934027       4.99483550       0.00092843      -0.00188462      -0.00294648
C       12.30565814       7.07337607       4.99435766      -0.00112434       0.00286421      -0.00157146
C       11.07223221       7.78539210       4.99359618       0.00130843      -0.00307221       0.00245155
C       11.07220909       9.20936200       4.99880745       0.00169384       0.00299225       0.00147993
C        9.83888837       9.92140428       5.00132927       0.00064920      -0.00011159      -0.00647172
C        9.83904503      11.34546223       5.00999342       0.00005065       0.00023371       0.00458916
C        8.60579643      12.05748647       5.01359869      -0.00241041      -0.00024323      -0.00106264
C        8.60581648      13.48158890       5.02062513       0.00003651      -0.00055459       0.00087495
C        7.37248968      14.19365668       5.02058866      -0.00048877      -0.00036921       0.00087803
C        4.33636026       7.51076205       9.22402706       0.00494835       0.00838257       0.01704359
O        4.31385359       7.47172135      10.39969492      -0.00319614      -0.00543505       0.01344661
O        4.35962149       7.55107734       8.04724604      -0.00011210      -0.00004165       0.02379865
