48
Lattice="8.315575849598094 0.0 0.0 4.157787924799047 7.20149657514819 0.0 0.0 0.0 19.999999365264614" Properties=species:S:1:pos:R:3:forces:R:3 energy=-283178.5757509488 free_energy=-283178.5757509488 pbc="T T T"
Pt       3.00284680       1.20024997       4.65800846       0.00241067       0.00075848      -1.24585169
Pt       5.77470538       1.20024997       4.65800846       0.00009693       0.00089320      -1.24597485
Pt       8.54656396       1.20024997       4.65800846      -0.00217952       0.00092354      -1.24585118
Pt       4.38877609       3.60074992       4.65800846      -0.00151027       0.00069574      -1.24846702
Pt       7.16063467       3.60074992       4.65800846       0.00192293       0.00077930      -1.24848579
Pt       9.93249325       3.60074992       4.65800846      -0.00009436       0.00269117      -1.24465407
Pt       5.77470538       6.00124987       4.65800846       0.00021829       0.00137503      -1.24661505
Pt       8.54656396       6.00124987       4.65800846       0.00022471       0.00103204      -1.24456588
Pt      11.31842254       6.00124987       4.65800846      -0.00006222       0.00113386      -1.24457411
Pt       1.61691751       2.00041662       6.92122151       0.00052193      -0.00423229       1.23838649
Pt       4.38877609       2.00041662       6.92122151       0.00213659      -0.00075822       1.25975545
Pt       7.16063467       2.00041662       6.92122151      -0.00183448      -0.00064200       1.25837888
Pt       3.00284680       4.40091657       6.92122151       0.00564434      -0.00363863       1.24464224
Pt       5.77470538       4.40091657       6.92122151       0.00020517      -0.00119788       1.28038726
Pt       8.54656396       4.40091657       6.92122151      -0.00494037      -0.00366562       1.24340914
Pt       4.38877609       6.80141652       6.92122151       0.00265621      -0.00595673       1.24566092
Pt       7.16063467       6.80141652       6.92122151      -0.00207977      -0.00569217       1.24563520
Pt       9.93249325       6.80141652       6.92122151       0.00030442       0.00288683       1.24084498
Pt       1.61800933       2.00389226       9.54973357      -0.00225280       0.00391913       0.01140207
Pt       4.38903476       2.00536999       9.55354887      -0.00443515       0.00211473      -0.00316811
Pt       7.16207758       2.00548314       9.55329612       0.00823062       0.00143905      -0.00154935
Pt       3.00248248       4.40659462       9.55083058       0.00031985      -0.00816634      -0.00304650
Pt       5.77553961       4.40550797       9.55735208       0.00196844      -0.00976608       0.00314086
Pt       8.54883672       4.40654346       9.55063691      -0.00035481      -0.00823524      -0.00238007
Pt       4.38888863       6.80534918       9.55081884       0.00572482       0.00964472      -0.00182008
Pt       7.16237035       6.80541004       9.55077342      -0.00418396       0.00631257      -0.00158740
Pt       9.93348225       6.80736030       9.55004927      -0.00038849      -0.00697849      -0.00108706
C        1.61855439       2.77829691      11.93530288       0.00060781      -0.00653549      -0.00058955
C        3.00425337       3.60619202      11.93635188      -0.00542657       0.00518386      -0.00543968
C        3.00447506       5.17811157      11.93604127      -0.00531910       0.00451383       0.00307735
C        4.38990294       6.00674600      11.93640033       0.00037101       0.00687693      -0.00447449
C        4.39056932       7.57846991      11.93562250      -0.00220678      -0.00301308      -0.00919092
C        5.77640278       8.40753186      11.93448186       0.00076927      -0.00322596       0.02559507
C        4.38881509       2.77746128      11.92777807       0.00870781      -0.00400449      -0.00416879
C        5.77620613       3.60823243      11.92178116       0.00254591      -0.00118014      -0.00031830
C        5.77612780       5.17726204      11.92869021       0.00316117       0.00767731      -0.00492186
C        7.16314995       6.00693703      11.93618501      -0.00510184       0.00371036      -0.00213453
C        7.16229446       7.57842600      11.93582476      -0.00154009      -0.00143210      -0.01185021
C        8.54768380       8.40734716      11.93520531       0.00519671       0.00176892       0.01326689
C        7.16384808       2.77730701      11.92788105      -0.00934622      -0.00132592      -0.00335683
C        8.54891055       3.60611350      11.93638129      -0.00066746       0.00608374      -0.00485759
C        8.54841645       5.17825770      11.93621137       0.00243458       0.00310744       0.00156323
C        9.93406952       6.00664100      11.94000212       0.00184888       0.00507664      -0.00098319
C        9.93395451       7.57815295      11.93682009       0.00256725       0.00100273      -0.01796995
C       11.32076024       8.40744166      11.93544997      -0.00749657      -0.00122102       0.01057160
C        5.79608572       3.60495038      16.43053987       0.00027614       0.00030622      -0.00484422
O        5.85600665       3.49229162      17.59864702       0.00074536      -0.00109760      -0.00946680
O        5.73634823       3.71733561      15.25743742      -0.00039749       0.00005836      -0.01147201
