101
Lattice="17.265850017958673 -0.00010359510010775204 0.0 -8.633011338229426 14.952692293502695 0.0 -0.0 0.0 15.000000722551901" Properties=species:S:1:pos:R:3:forces:R:3 energy=-25986.1377344696 free_energy=-25986.1377344696 pbc="T T T"
C        1.20433327       0.66216977       4.99400224      -0.00052862       0.00409808       0.00358643
C       -0.02860900       1.37401982       4.99379241       0.00033064       0.00106392       0.00199595
C       -0.02861472       2.79798547       5.00132816       0.00149355       0.01466223       0.00304984
C       -1.26171377       3.51021527       4.99732116       0.00735721      -0.00165193       0.00037281
C       -1.26178855       4.93449277       5.00178364       0.00179669      -0.00325065       0.00294880
C       -2.49500524       5.64656165       4.99483633       0.00174089      -0.00696615       0.00240167
C       -2.49591072       7.07067250       4.99561083       0.00669567      -0.00389548       0.00374018
C       -3.72922417       7.78250088       4.99266743       0.00527385       0.00336583       0.00296397
C       -3.73017265       9.20661009       4.99234058       0.00941049       0.00417907       0.00061269
C       -4.96337979       9.91868560       4.99442553       0.01076881       0.00352781      -0.00014450
C       -4.96339330      11.34302568       4.99201449       0.00167893      -0.00165373      -0.00270043
C       -6.19656088      12.05521825       4.99353972       0.01127634      -0.01508569       0.00002957
C       -6.19653358      13.47925687       4.99078044       0.00868750      -0.00616139       0.00044454
C       -7.42942058      14.19108289       4.99091759       0.00760738      -0.00805270       0.00259759
C        3.67077675       0.66242677       5.00163350      -0.00248960       0.00518874       0.00334346
C        2.43751725       1.37411601       5.00379556       0.00710961       0.00987715       0.00471103
C        2.43774512       2.79814687       5.01985411       0.00396130       0.01064694       0.00450200
C        1.20449413       3.51033859       5.01716884       0.00433797       0.00785549       0.00427960
C        1.20458373       4.93474304       5.02947628      -0.00089012      -0.00641902       0.00237853
C       -0.02874831       5.64679114       5.01735320      -0.00008253      -0.00340183       0.00391091
C       -0.02945265       7.07095815       5.02018116       0.00534070      -0.00323625       0.00400732
C       -1.26297217       7.78271678       5.00520620       0.00586726       0.00797736       0.00414899
C       -1.26368280       9.20687895       5.00310729       0.01015149       0.00201523       0.00299508
C       -2.49712566       9.91883800       4.99413502       0.01276578       0.01009852      -0.00041138
C       -2.49692732      11.34326158       4.99232068       0.00246492      -0.00266675      -0.00309304
C       -3.73028860      12.05537592       4.99024564       0.01182270      -0.00871141      -0.00466809
C       -3.72997454      13.47945883       4.99149404       0.00295137      -0.00474086      -0.00307555
C       -4.96326844      14.19131296       4.99262380       0.01484478      -0.00502702      -0.00048311
C        6.13748650       0.66253752       5.00298494      -0.00361600      -0.00250065       0.00317608
C        4.90424742       1.37438419       5.01137945      -0.00314857       0.00487687       0.00388391
C        4.90455714       2.79839600       5.03130191      -0.00147993      -0.00150204       0.00225769
C        3.67114039       3.51034829       5.03807108      -0.00321671       0.00104618       0.00107395
C        3.67122931       4.93467436       5.05684780      -0.00570091      -0.01605937      -0.00576210
C        2.43774014       5.64709970       5.05016422      -0.00744129      -0.00824656      -0.00285444
C        2.43701558       7.07119923       5.05426162      -0.00154600      -0.01113596      -0.00528053
C        1.20360794       7.78301451       5.03681061      -0.00142413       0.00177843       0.00123876
C        1.20298332       9.20702601       5.03042403       0.00505093      -0.00492186       0.00196021
C       -0.03042331       9.91909356       5.01203366       0.00365842       0.00270069       0.00333729
C       -0.03025335      11.34338915       5.00360666       0.00364531      -0.01232793       0.00279248
C       -1.26354503      12.05559536       4.99431218       0.00039775      -0.01452056      -0.00063146
C       -1.26328143      13.47960528       4.99226415       0.00311386      -0.01445320       0.00015915
C       -2.49652616      14.19150407       4.99369914       0.00371730      -0.00892970      -0.00077596
C        8.60447190       0.66170660       4.99633876      -0.00212527       0.00475320       0.00399575
C        7.37129619       1.37373398       5.00625508      -0.00472594       0.00994606       0.00458351
C        7.37157121       2.79756508       5.02287983       0.00052373       0.00801901       0.00423152
C        6.13830336       3.50987775       5.03997977      -0.00041318       0.00702014       0.00087418
C        6.13865802       4.93391307       5.05935284      -0.00347407      -0.00933748      -0.00598964
C        4.90502782       5.64587853       5.06968762      -0.00350621      -0.00090863      -0.01116759
C        4.90405570       7.07033336       5.07491844      -0.00089294      -0.00673989      -0.01425960
C        3.67019190       7.78255405       5.06551115       0.00005631       0.00730090      -0.01066751
C        3.66977040       9.20631696       5.05557869       0.00250760       0.00112871      -0.00569139
C        2.43649518       9.91844210       5.03789493       0.00402712       0.00900529       0.00079319
C        2.43675431      11.34256455       5.02187495       0.00034196      -0.00832035       0.00386797
C        1.20347471      12.05487175       5.00627357       0.00012213      -0.00757138       0.00422124
C        1.20373927      13.47873573       4.99635389       0.00454057      -0.00988821       0.00376872
C       -0.02943972      14.19081252       4.99268347       0.00142748      -0.00465010       0.00276034
C       11.07151190       0.66097734       4.99203548      -0.00374121       0.00882017       0.00076310
C        9.83828060       1.37285444       4.99593783      -0.00469612       0.01550941       0.00287449
C        9.83850738       2.79687006       5.00418483      -0.00086620       0.01456041       0.00365739
C        8.60522671       3.50909850       5.02086655      -0.00308044       0.01207621       0.00445289
C        8.60541877       4.93333630       5.03396569      -0.00370136      -0.00320334       0.00248343
C        7.37205743       5.64537278       5.05506708      -0.00451280       0.00457733      -0.00421198
C        7.37154735       7.06935001       5.06058819       0.00212502      -0.00173087      -0.00660825
C        6.13809169       7.78151032       5.07110320       0.00072274       0.01135116      -0.01214383
C        6.13712771       9.20569612       5.05987387       0.00626244       0.00904977      -0.00681394
C        4.90331535       9.91765673       5.05299641       0.00498794       0.01678442      -0.00423872
C        4.90371479      11.34197075       5.03258659       0.00282976      -0.00053402       0.00189670
C        3.67040066      12.05401831       5.01972888       0.00219007       0.00132823       0.00379032
C        3.67074461      13.47804945       5.00349244       0.00320719      -0.00635808       0.00330747
C        2.43750135      14.18992632       4.99566656       0.00425132       0.00275751       0.00297657
C       13.53826177       0.66113516       4.99175621      -0.01434290       0.00471900      -0.00289018
C       12.30497357       1.37298086       4.99115675      -0.00228905       0.00501391      -0.00257625
C       12.30526699       2.79704979       4.99214826      -0.01186718       0.00872812      -0.00266135
C       11.07193073       3.50917265       4.99960873      -0.00371961       0.00441536       0.00131923
C       11.07207599       4.93355291       5.00463506      -0.01325712      -0.00961593       0.00343217
C        9.83866190       5.64550655       5.02158023      -0.00908962      -0.00161465       0.00437499
C        9.83799237       7.06968691       5.02440841      -0.00588474      -0.00869727       0.00390551
C        8.60451457       7.78146630       5.04207362      -0.00367565       0.00342702       0.00039415
C        8.60377629       9.20563535       5.03423679       0.00077364       0.00313315       0.00160488
C        7.37053312       9.91789058       5.04160615       0.00051962       0.00622336       0.00001980
C        7.37056224      11.34221367       5.02330280      -0.00536538      -0.00740375       0.00390062
C        6.13721210      12.05422324       5.02038309      -0.00419321      -0.00980927       0.00410168
C        6.13749250      13.47824616       5.00353620      -0.00757858      -0.00938350       0.00317660
C        4.90424663      14.19002893       4.99884315       0.00299868      -0.00566414       0.00117499
C       16.00447451       0.66132320       4.99094407      -0.00865356       0.00861937      -0.00021186
C       14.77152475       1.37312659       4.99058083      -0.00786449       0.00605469      -0.00338331
C       14.77156584       2.79718860       4.99120908      -0.01128097       0.01496253      -0.00337200
C       13.53836423       3.50939316       4.99100412      -0.00206820       0.00108038      -0.00306938
C       13.53834676       4.93369216       4.99189154      -0.01102798      -0.00344734       0.00023680
C       12.30511857       5.64572519       4.99635751      -0.01070453      -0.00350133       0.00268269
C       12.30419916       7.06988011       4.99696056      -0.00670209      -0.00309278       0.00397981
C       11.07087591       7.78170022       5.00763071      -0.00680880       0.00409911       0.00480282
C       11.06998584       9.20580813       5.00453486      -0.00151952       0.00633803       0.00357383
C        9.83677793       9.91790785       5.01376950      -0.00126318       0.00309715       0.00415979
C        9.83671808      11.34222201       5.00373962      -0.00633366       0.00128272       0.00354504
C        8.60366574      12.05446517       5.00633620      -0.00224046      -0.01450591       0.00512729
C        8.60367025      13.47837712       4.99539332      -0.00072222      -0.00039055       0.00365868
C        7.37069720      14.19021978       4.99506763      -0.00030339      -0.00416673       0.00250477
C        4.96067883       7.17619495       8.55776294      -0.00021109       0.00000334      -0.02116738
O        5.97656513       6.58739870       8.55887057       0.00830621      -0.00596547      -0.02323763
O        3.94479222       7.76505996       8.56287756      -0.00177509       0.00187536      -0.02163275
