179
Lattice="10.720992125991367 0.0 0.0 -5.360496062995684 9.284647205911675 0.0 0.0 0.0 34.99999747733031" Properties=species:S:1:pos:R:3:forces:R:3 energy=-75885.95882810214 free_energy=-75885.95882810214 pbc="T T T"
Si       1.78683208      -0.00000002       5.05623624      -0.00075950      -0.00005991      -0.07123653
Si       0.89341603       1.54744198      12.64850174       0.00053762      -0.00041369       0.09248695
Si       0.89341603       1.54744198       2.52836107      -0.00045946      -0.00082995       0.00498357
Si       1.78683208      -0.00000002      10.12062657       0.00077133       0.00039312      -0.06488899
Si      -0.00692747       0.00610657      15.20678869       0.00165168       0.00245412       0.00809023
Si       0.00000000       0.00000000       7.58805938      -0.00014784       0.00004345      -0.07292960
C        0.00000000       0.00000000       5.68435955      -0.00020003      -0.00022703       0.07757610
C        0.00000000       0.00000000      13.27662505      -0.00733639       0.00541474       0.26002518
C        1.78683208      -0.00000002       3.15844319       0.00119068       0.00030390       0.08976081
C        0.89341603       1.54744198      10.75070869       0.00016584       0.00076259      -0.00476580
C        0.89341603       1.54744198       0.63055283      -0.00439813      -0.00743023      -0.43523531
C        1.78683208      -0.00000002       8.22281833       0.00097008      -0.00001800       0.10265258
Si       1.78683208       3.09488391       5.05623624      -0.00036073      -0.00049648      -0.07103470
Si       3.57366413       0.00000002      12.64850174      -0.00122359       0.00082532       0.06598325
Si       3.57366413       0.00000002       2.52836107      -0.00107446      -0.00003445       0.00531318
Si       1.78683208       3.09488391      10.12062657       0.00013704      -0.00068237      -0.06519418
Si      -0.01160803       3.08634974      15.20674419      -0.00543685       0.00070628       0.00819951
Si       0.00000000       3.09488393       7.58805938      -0.00018178      -0.00084692      -0.07251488
C        0.00000000       3.09488393       5.68435955       0.00003702       0.00118605       0.07805818
C        0.00000000       3.09488393      13.27662505      -0.01143961      -0.00803958       0.25823029
C        1.78683208       3.09488391       3.15844319       0.00057747       0.00114594       0.09084479
C        3.57366413       0.00000002      10.75070869       0.00079113      -0.00037538      -0.01093593
C        3.57366413       0.00000002       0.63055283      -0.00839259      -0.00020775      -0.43455937
C        1.78683208       3.09488391       8.22281833       0.00046280       0.00107626       0.10337120
Si      -0.89341603       1.54744195       5.05623624       0.00034196      -0.00061424      -0.07122984
Si      -1.78683208       3.09488395      12.64850174       0.00004782      -0.00198438       0.06543895
Si      -1.78683208       3.09488395       2.52836107       0.00050162      -0.00093820       0.00516817
Si      -0.89341603       1.54744195      10.12062657       0.00026328       0.00066360      -0.06406598
Si       2.68585498       1.54281979      15.20880251       0.00019875      -0.00554201      -0.00785806
Si       2.68024811       1.54744196       7.58805938      -0.00059264      -0.00047617      -0.07243415
C        2.68024811       1.54744196       5.68435955       0.00139997       0.00112383       0.07823481
C        2.68024811       1.54744196      13.27662505       0.00593642      -0.00373298       0.28066985
C       -0.89341603       1.54744195       3.15844319      -0.00042860       0.00113874       0.08987934
C       -1.78683208       3.09488395      10.75070869      -0.00021160       0.00262253      -0.01152651
C       -1.78683208       3.09488395       0.63055283       0.00411659      -0.00767937      -0.43450229
C       -0.89341603       1.54744195       8.22281833      -0.00063738       0.00089243       0.10270374
C        0.04066383       0.08075739      18.93389249      -0.00276445       0.00169256       0.00147093
C        1.38130172       0.85511562      18.93542069      -0.00276214       0.00157943       0.00080244
C       -1.30036848       2.40179222      18.93264156       0.00016172       0.00260838       0.02287896
C        0.04046399       3.17595097      18.93318984       0.00028051       0.00292180       0.00849801
C        2.72127148       0.08157745      18.93424760      -0.00349516       0.00083895       0.01121515
C        4.06090593       0.85571574      18.93429333      -0.00165271      -0.00130741       0.00979205
C        1.38128057       2.40207995      18.93540065      -0.00041061       0.00279839      -0.00230602
C        2.72105919       3.17657127      18.93411071       0.00130021      -0.00017921      -0.00311618
Si      -0.89341603       4.64232588       5.05623624       0.00008048      -0.00038721      -0.07094291
Si      -1.78683208       6.18976788      12.64850174       0.00165065       0.00063069       0.09117672
Si      -1.78683208       6.18976788       2.52836107      -0.00050651       0.00016892       0.00537926
Si      -0.89341603       4.64232588      10.12062657      -0.00171184      -0.00182985      -0.06470464
Si      -2.67728442       4.63478988      15.20688195       0.00370933      -0.00204223       0.00811106
Si      -2.68024811       4.64232589       7.58805938       0.00003060      -0.00001877      -0.07223154
C       -2.68024811       4.64232589       5.68435955      -0.00023963      -0.00016609       0.07809726
C       -2.68024811       4.64232589      13.27662505       0.00325759      -0.00749888       0.25959580
C       -0.89341603       4.64232588       3.15844319       0.00007045       0.00081890       0.09061133
C       -1.78683208       6.18976788      10.75070869      -0.00085592      -0.00083175      -0.00570399
C       -1.78683208       6.18976788       0.63055283      -0.00442204       0.00197769      -0.43428221
C       -0.89341603       4.64232588       8.22281833       0.00043400       0.00087238       0.10278525
Si      -0.89341603       7.73720981       5.05623624      -0.00034016       0.00015581      -0.07091977
Si       0.89341603       4.64232591      12.64850174      -0.00005939       0.00124364       0.11377491
Si       0.89341603       4.64232591       2.52836107      -0.00001928      -0.00055459       0.00554330
Si      -0.89341603       7.73720981      10.12062657      -0.00102176       0.00169744      -0.06392919
Si      -2.66603920       7.74268489      15.20680755       0.00177278       0.00502265       0.00821390
Si      -2.68024811       7.73720982       7.58805938      -0.00038747       0.00045431      -0.07249534
C       -2.68024811       7.73720982       5.68435955       0.00114286      -0.00119196       0.07786457
C       -2.68024811       7.73720982      13.27662505       0.01483501       0.00500414       0.25929241
C       -0.89341603       7.73720981       3.15844319       0.00052990      -0.00002700       0.09098517
C        0.89341603       4.64232591      10.75070869       0.00036535      -0.00097753      -0.00098962
C        0.89341603       4.64232591       0.63055283      -0.00002314      -0.00493729      -0.43424878
C       -0.89341603       7.73720981       8.22281833       0.00073431      -0.00042320       0.10299942
Si      -3.57366413       6.18976784       5.05623624      -0.00039132       0.00062812      -0.07105372
Si      -4.46708018       7.73720984      12.64850174      -0.00172315      -0.00082969       0.11505250
Si      -4.46708018       7.73720984       2.52836107      -0.00048234       0.00074536       0.00496120
Si      -3.57366413       6.18976784      10.12062657       0.00066849      -0.00016147      -0.06527234
Si      -0.00240896       6.19845949      15.20870454      -0.00306347      -0.00106572      -0.00829309
Si       0.00000000       6.18976786       7.58805938      -0.00002237       0.00007328      -0.07271954
C        0.00000000       6.18976786       5.68435955       0.00012701       0.00023166       0.07794891
C        0.00000000       6.18976786      13.27662505      -0.00163676       0.00889422       0.27777633
C       -3.57366413       6.18976784       3.15844319       0.00064638      -0.00072454       0.09074014
C       -4.46708018       7.73720984      10.75070869       0.00172984      -0.00030545      -0.00056924
C       -4.46708018       7.73720984       0.63055283      -0.00432999       0.00661622      -0.43544743
C       -3.57366413       6.18976784       8.22281833       0.00029516      -0.00058904       0.10336015
C       -2.64060377       4.72341235      18.93448799       0.00097908       0.00073894      -0.00329204
C       -1.29957778       5.49699095      18.93551846       0.00047951       0.00236207       0.00004268
C       -3.98073928       7.04418759      18.93545853      -0.00077596       0.00036998      -0.00617836
C       -2.63938986       7.81824660      18.93327307      -0.00326941       0.00166659       0.01024225
C        0.04049343       4.72342199      18.93550521       0.00107446       0.00294931      -0.00306064
C        1.38071304       5.49727423      18.93416114       0.00255002       0.00107832      -0.00363143
C       -1.29933882       7.04447488      18.93384543      -0.00090194       0.00204274       0.01473988
C        0.04073233       7.81801350      18.93378646      -0.00121665       0.00093074       0.01396392
Si       7.14732829      -0.00000002       5.05623624       0.00061218       0.00003111      -0.07106478
Si       6.25391224       1.54744198      12.64850174       0.00144496       0.00025685       0.11885773
Si       6.25391224       1.54744198       2.52836107       0.00046923      -0.00036535       0.00544200
Si       7.14732829      -0.00000002      10.12062657       0.00100582      -0.00168639      -0.06556673
Si       5.34401905      -0.00820910      15.20675855       0.00040212      -0.00035918       0.00915004
Si       5.36049621       0.00000000       7.58805938      -0.00018461      -0.00011750      -0.07244854
C        5.36049621       0.00000000       5.68435955      -0.00014064      -0.00023988       0.07796922
C        5.36049621       0.00000000      13.27662505      -0.01750484      -0.00915056       0.25900445
C        7.14732829      -0.00000002       3.15844319      -0.00102433       0.00019335       0.09035576
C        6.25391224       1.54744198      10.75070869      -0.00113103      -0.00046280       0.00001723
C        6.25391224       1.54744198       0.63055283       0.00387208      -0.00274285      -0.43442259
C        7.14732829      -0.00000002       8.22281833      -0.00121202       0.00054790       0.10306601
Si       7.14732829       3.09488391       5.05623624       0.00027202      -0.00026534      -0.07096579
Si       8.93416034       0.00000002      12.64850174       0.00061347       0.00101456       0.09241110
Si       8.93416034       0.00000002       2.52836107       0.00084229       0.00002365       0.00495734
Si       7.14732829       3.09488391      10.12062657       0.00194607       0.00156452      -0.06464165
Si       5.35583878       3.10099644      15.20668861      -0.00167250       0.00469432       0.00926574
Si       5.36049621       3.09488393       7.58805938      -0.00012933       0.00014167      -0.07262929
C        5.36049621       3.09488393       5.68435955      -0.00014758      -0.00037538       0.07778950
C        5.36049621       3.09488393      13.27662505      -0.00589117       0.00654937       0.25726381
C        7.14732829       3.09488391       3.15844319      -0.00028076       0.00056924       0.09091575
C        8.93416034       0.00000002      10.75070869      -0.00202063      -0.00131101      -0.00491389
C        8.93416034       0.00000002       0.63055283       0.00827715      -0.00052759      -0.43494684
C        7.14732829       3.09488391       8.22281833      -0.00088549      -0.00008433       0.10325345
Si       4.46708018       1.54744195       5.05623624      -0.00030108      -0.00016892      -0.07095165
Si       3.57366413       3.09488395      12.64850174      -0.00105724      -0.00026739       0.08872954
Si       3.57366413       3.09488395       2.52836107      -0.00053016      -0.00024914       0.00566697
Si       4.46708018       1.54744195      10.12062657      -0.00180620      -0.00087160      -0.06459408
Si       8.05568436       1.55776805      15.20883015       0.00080810      -0.00168202      -0.00726928
Si       8.04074432       1.54744196       7.58805938       0.00082610      -0.00024503      -0.07265475
C        8.04074432       1.54744196       5.68435955      -0.00125855       0.00094051       0.07795482
C        8.04074432       1.54744196      13.27662505       0.01543947       0.01162936       0.28192763
C        4.46708018       1.54744195       3.15844319       0.00073174       0.00040392       0.09104122
C        3.57366413       3.09488395      10.75070869       0.00024631       0.00070140      -0.00654371
C        3.57366413       3.09488395       0.63055283      -0.00452874      -0.00284210      -0.43454472
C        4.46708018       1.54744195       8.22281833       0.00097548       0.00044172       0.10328250
C        5.40113674       0.08193446      18.93306813      -0.00128478      -0.00214893       0.01213432
C        6.74105350       0.85566026      18.93539336       0.00034401      -0.00234407       0.00056359
C        4.06039233       2.40313493      18.93493622       0.00130689      -0.00218415      -0.00234176
C        5.40026866       3.17739233      18.93251916       0.00171158      -0.00327713       0.00190596
C        8.08122049       0.08151399      18.93504531      -0.00104233      -0.00059161       0.00028591
C        9.42083332       0.85497902      18.93349581      -0.00117422       0.00099193       0.01456401
C        6.74076527       2.40276490      18.93506008       0.00109323      -0.00160051      -0.00004422
C        8.08061965       3.17564982      18.93406500       0.00079781       0.00067337       0.00941589
Si       4.46708018       4.64232588       5.05623624       0.00001800       0.00040495      -0.07092851
Si       3.57366413       6.18976788      12.64850174       0.00168227       0.00012341       0.06000312
Si       3.57366413       6.18976788       2.52836107       0.00053016       0.00083407       0.00539083
Si       4.46708018       4.64232588      10.12062657      -0.00137657       0.00121716      -0.06389217
Si       2.69150752       4.65084239      15.20630366       0.00719986       0.00250991       0.01035538
Si       2.68024811       4.64232589       7.58805938       0.00009462       0.00007173      -0.07231742
C        2.68024811       4.64232589       5.68435955      -0.00022009      -0.00030596       0.07806846
C        2.68024811       4.64232589      13.27662505       0.01120564       0.00856949       0.25130425
C        4.46708018       4.64232588       3.15844319      -0.00002031      -0.00030416       0.09076791
C        3.57366413       6.18976788      10.75070869      -0.00171647      -0.00094000      -0.01198597
C        3.57366413       6.18976788       0.63055283       0.00404229       0.00704019      -0.43460488
C        4.46708018       4.64232588       8.22281833       0.00030982      -0.00068648       0.10260167
Si       4.46708018       7.73720981       5.05623624       0.00039826       0.00060164      -0.07124990
Si       6.25391224       4.64232591      12.64850174      -0.00186611       0.00201240       0.09240493
Si       6.25391224       4.64232591       2.52836107       0.00001748       0.00052373       0.00565051
Si       4.46708018       7.73720981      10.12062657      -0.00178692      -0.00053608      -0.06453263
Si       2.68682506       7.72519082      15.20670084       0.00033707       0.00191624       0.00852295
Si       2.68024811       7.73720982       7.58805938       0.00071040       0.00007816      -0.07228271
C        2.68024811       7.73720982       5.68435955      -0.00146784      -0.00096236       0.07804712
C        2.68024811       7.73720982      13.27662505       0.00609866      -0.01426114       0.25731729
C        4.46708018       7.73720981       3.15844319      -0.00048337      -0.00064303       0.08994233
C        6.25391224       4.64232591      10.75070869       0.00138685      -0.00112203      -0.00532604
C        6.25391224       4.64232591       0.63055283       0.00005579       0.00427986      -0.43437065
C        4.46708018       7.73720981       8.22281833       0.00003342      -0.00073508       0.10290172
Si       1.78683208       6.18976784       5.05623624       0.00026585       0.00015452      -0.07091025
Si       0.89341603       7.73720984      12.64850174      -0.00048851      -0.00209622       0.09170122
Si       0.89341603       7.73720984       2.52836107       0.00040881       0.00029388       0.00564691
Si       1.78683208       6.18976784      10.12062657       0.00303159       0.00097908      -0.06438222
Si       5.34651310       6.18484812      15.20829006      -0.00488381      -0.00539135      -0.00480333
Si       5.36049621       6.18976786       7.58805938      -0.00030313       0.00055613      -0.07260101
C        5.36049621       6.18976786       5.68435955       0.00026457      -0.00128787       0.07807978
C        5.36049621       6.18976786      13.27662505      -0.01485918      -0.00542400       0.27446398
C        1.78683208       6.18976784       3.15844319      -0.00031008      -0.00000848       0.09090007
C        0.89341603       7.73720984      10.75070869       0.00098242       0.00172572      -0.00630306
C        0.89341603       7.73720984       0.63055283       0.00380883       0.00185968      -0.43453340
C        1.78683208       6.18976784       8.22281833      -0.00115751      -0.00056076       0.10308324
C        2.72149425       4.72435964      18.92798677       0.00276394      -0.00145062       0.00862759
C        4.06054790       5.49767698      18.92277203       0.00333369      -0.00285290       0.02204978
C        1.38038353       7.04452651      18.93502799       0.00152621      -0.00028565      -0.00321748
C        2.72084701       7.81806361      18.93326863       0.00039801      -0.00089706      -0.00521445
C        5.39959221       4.72475850      18.92855013       0.00195841      -0.00302182       0.01355460
C        6.73963202       5.49725678      18.93416762       0.00072222      -0.00070885      -0.00289635
C        4.06103629       7.04352696      18.92944673       0.00068777      -0.00096159       0.00542246
C        5.40066488       7.81714805      18.93442567      -0.00174192       0.00070654      -0.00578215
C        4.05929156       5.49949607      23.19708068       0.00071682      -0.00004499      -0.00474754
O        4.06517376       5.53097098      24.36789174       0.00113643       0.00079319       0.00162005
O        4.05313507       5.46813984      22.01847614       0.00048928      -0.00086209       0.01651934
