101
Lattice="17.265850017958673 -0.00010359510010775204 0.0 -8.633011338229426 14.952692293502695 0.0 -0.0 0.0 15.000000722551901" Properties=species:S:1:pos:R:3:forces:R:3 energy=-25938.615486062452 free_energy=-25938.615486062452 pbc="T T T"
C        1.21009135       0.67138507       4.97480419      -0.00535998      -0.00841316       0.00290663
C       -0.02308358       1.38334657       4.97488401      -0.00466707      -0.00853735       0.00304007
C       -0.02293570       2.80719691       4.97258141      -0.00513141      -0.00368670       0.00165065
C       -1.25621175       3.51885199       4.97329598      -0.00635962      -0.00510621       0.00513886
C       -1.25613516       4.94258269       4.97255969      -0.00742149       0.00033270       0.00433077
C       -2.48950139       5.65431722       4.97576867      -0.00606472       0.00116497       0.00080707
C       -2.48971831       7.07819103       4.97725855      -0.00567108       0.00358258      -0.00160180
C       -3.72307471       7.79017609       4.98005511      -0.00455034       0.00344991      -0.00853838
C       -3.72327844       9.21434209       4.97957962      -0.00279068       0.00044609      -0.00654474
C       -4.95655698       9.92656572       4.97867944      -0.00449994       0.00288426       0.00265055
C       -4.95666824      11.35092468       4.97986962      -0.00345916      -0.00280842      -0.00767217
C       -6.18989523      12.06327740       4.98021338      -0.00222503      -0.00251222      -0.00741686
C       -6.18989560      13.48762998       4.97852125      -0.00289455      -0.00714098      -0.00160437
C       -7.42297799      14.19992609       4.97782392      -0.00427369      -0.00624650       0.00094231
C        3.67603618       0.67122478       4.97285001      -0.00144676      -0.00839002       0.00556541
C        2.44309039       1.38344476       4.97232726      -0.00064200      -0.00639999       0.00177149
C        2.44310341       2.80732505       4.97007180      -0.00275957      -0.00632003      -0.00140562
C        1.21017592       3.51915710       4.97022606      -0.00401041      -0.00556515      -0.00129404
C        1.21031714       4.94277423       4.96749646      -0.00722583       0.00150898      -0.00393122
C       -0.02296671       5.65441171       4.96970471      -0.00235950       0.00060035       0.00034556
C       -0.02337608       7.07808205       4.96984307      -0.00446549       0.00547619       0.00499514
C       -1.25653828       7.79011699       4.97454978      -0.00383429       0.00398290       0.00186971
C       -1.25681397       9.21414343       4.97606949      -0.00391399       0.00434439      -0.00053479
C       -2.49008731       9.92640439       4.97744778      -0.00181777       0.00356252       0.00031907
C       -2.49042361      11.35068020       4.97590602       0.00234202      -0.00021983       0.01139924
C       -3.72353844      12.06309211       4.97825130      -0.00243663       0.00020543      -0.00269914
C       -3.72378288      13.48745530       4.97739721      -0.00005245      -0.00887493      -0.00261738
C       -4.95683743      14.19976648       4.97627012      -0.00130278      -0.00360494       0.00206562
C        6.14201910       0.67086689       4.97549391       0.00426752      -0.00487713       0.00052630
C        4.90896735       1.38313461       4.97211044       0.00428012      -0.00661288       0.00452694
C        4.90884786       2.80698027       4.96916235       0.00185839      -0.00173909       0.00050882
C        3.67593173       3.51922840       4.96707514       0.00486710      -0.00549111      -0.00407160
C        3.67586382       4.94266921       4.96112090       0.00208851       0.00147633      -0.00205534
C        2.44313035       5.65440217       4.96151194       0.00010182       0.00258704      -0.00225357
C        2.44263179       7.07796938       4.96031602      -0.00149458       0.00307093       0.00541294
C        1.20966977       7.79001467       4.96682011       0.00004577       0.00771357       0.00933979
C        1.20956142       9.21414598       4.97282549       0.00044377       0.00376281       0.00012856
C       -0.02376749       9.92621927       4.97618841       0.00027716       0.00906597      -0.00213633
C       -0.02408334      11.35049948       4.97744285       0.00356252       0.00020620      -0.00120199
C       -1.25728931      12.06280447       4.97564749      -0.00097265       0.00089757       0.01273133
C       -1.25761716      13.48707238       4.97746136       0.00319382      -0.00267575       0.00096056
C       -2.49078869      14.19945591       4.97704581       0.00443104      -0.00364788      -0.00255002
C        8.60849171       0.67046377       4.97998938       0.00588937      -0.00255953      -0.00864842
C        7.37522787       1.38258739       4.97710948       0.00628095      -0.00330001      -0.00214610
C        7.37519636       2.80649073       4.97425554       0.00559164      -0.00125367       0.00135343
C        6.14199156       3.51841510       4.96925765       0.00723406      -0.00095722       0.00487841
C        6.14206772       4.94220160       4.96589693       0.00637325       0.00453568       0.00955088
C        4.90897369       5.65396591       4.95941824       0.00319151       0.00060112       0.00629895
C        4.90954796       7.07808342       4.95903907       0.00266855       0.00765829      -0.00523014
C        3.67570178       7.79048620       4.95957335       0.00435468       0.00639536      -0.00575130
C        3.67619149       9.21479825       4.96653626       0.00193244       0.00548262      -0.00763695
C        2.44274956       9.92638278       4.97382463       0.00259681       0.00816582      -0.00702477
C        2.44253430      11.35057891       4.97817415       0.00348153       0.00416699      -0.00758295
C        1.20911967      12.06258056       4.97901777       0.00391965       0.00502651      -0.00639459
C        1.20893027      13.48685451       4.97827582       0.00551476      -0.00115571       0.00394356
C       -0.02439027      14.19900885       4.97934219       0.00414205       0.00078007      -0.00524916
C       11.07539316       0.67040626       4.97878934       0.00544945      -0.00246029       0.00284673
C        9.84195361       1.38234487       4.97953019       0.00239267      -0.00230217      -0.00640796
C        9.84204386       2.80633359       4.97730893       0.00408343       0.00043426       0.00045174
C        8.60858373       3.51823367       4.97579161       0.00599221      -0.00091506      -0.00069343
C        8.60877632       4.94210424       4.97572767       0.00780715       0.00527822      -0.00231476
C        7.37546706       5.65414328       4.97197139       0.00275417       0.00312440       0.00011467
C        7.37573209       7.07823540       4.97281627       0.00548622       0.00709727      -0.00665941
C        6.14279476       7.79065472       4.96574325       0.00303827       0.00529390      -0.00726105
C        6.14251770       9.21459099       4.96752682       0.00341417       0.00601124       0.00055510
C        4.90947383       9.92651192       4.96792569       0.00274028       0.00637788       0.00038284
C        4.90935101      11.35057378       4.97340463       0.00193270      -0.00011956       0.00227774
C        3.67591859      12.06257401       4.97673955       0.00224072       0.00445109      -0.00178897
C        3.67586399      13.48688625       4.97710685       0.00328998      -0.00021572       0.00824476
C        2.44236424      14.19890059       4.97704292       0.00284133      -0.00003111       0.01509649
C       13.54251264       0.67064976       4.98051036      -0.00057413      -0.00313983      -0.00738884
C       12.30898052       1.38247835       4.98002948      -0.00038361      -0.00411839      -0.00752202
C       12.30917375       2.80649067       4.97834907       0.00163779      -0.00191521      -0.00232736
C       11.07566058       3.51818995       4.97585903      -0.00099579       0.00209339       0.01176614
C       11.07583237       4.94218537       4.97565239       0.00154472      -0.00026482       0.01240866
C        9.84237591       5.65400651       4.97719763      -0.00155552       0.00336455      -0.00179026
C        9.84247451       7.07804152       4.97856538       0.00237313       0.00629329      -0.00666121
C        8.60918470       7.79020615       4.97727491       0.00201549       0.00522474      -0.00700883
C        8.60910251       9.21436069       4.97583566       0.00270583       0.00466012      -0.00101533
C        7.37580310       9.92655624       4.97274951      -0.00118091       0.00188205       0.00284930
C        7.37605988      11.35085995       4.97468123      -0.00312980       0.00106264       0.00773491
C        6.14267137      12.06296350       4.97495544       0.00231245      -0.00209493       0.00748114
C        6.14285463      13.48726097       4.97859605      -0.00026662      -0.00270094      -0.00256468
C        4.90937807      14.19916869       4.97908232      -0.00144753      -0.00283207      -0.00230011
C       16.00945532       0.67110275       4.97794385      -0.00327276      -0.00652957       0.00148096
C       14.77603561       1.38282972       4.97880049      -0.00455368      -0.00583692      -0.00158431
C       14.77622575       2.80676735       4.97668307      -0.00236541      -0.00241118       0.00138248
C       13.54281846       3.51848053       4.97769837      -0.00716309      -0.00431534      -0.00292900
C       13.54294079       4.94230703       4.97728431      -0.00492083       0.00208516      -0.00245566
C       12.30942720       5.65407949       4.97757079      -0.00376230       0.00152801       0.00094231
C       12.30937156       7.07807892       4.97937680      -0.00078881       0.00371807      -0.00545742
C       11.07598132       7.79008316       4.97806744      -0.00317120       0.00411711       0.00356226
C       11.07592350       9.21431264       4.97671219      -0.00086878       0.00209853       0.01494377
C        9.84257359       9.92653614       4.97646285      -0.00163368       0.00274080       0.00856666
C        9.84267148      11.35095023       4.97861338      -0.00178846      -0.00298197      -0.00216667
C        8.60941078      12.06320672       4.97826714      -0.00215458      -0.00168587      -0.00247469
C        8.60962954      13.48760383       4.97941127      -0.00467555      -0.00754927      -0.00478019
C        7.37629508      14.19966124       4.97949332      -0.00431431      -0.00774545      -0.00448478
C        4.30524349       7.43868835       8.14964005      -0.00888779      -0.01331137      -0.00006273
O        3.72487517       6.41794504       8.14898315      -0.00776987      -0.01377237      -0.00234150
O        4.88543429       8.45926562       8.16005483       0.01474553       0.02527394      -0.00481105
