179
Lattice="10.720992125991367 0.0 0.0 -5.360496062995684 9.284647205911675 0.0 0.0 0.0 34.99999747733031" Properties=species:S:1:pos:R:3:forces:R:3 energy=-74887.77214344166 free_energy=-74887.77214344166 pbc="T T T"
Si       1.78683208      -0.00000002       5.05623624      -0.00005091      -0.00008253      -0.05873659
Si       0.89341603       1.54744198      12.64850174      -0.00197461      -0.00046923       0.02405910
Si       0.89341603       1.54744198       2.52836107       0.00008870       0.00008639       0.14620604
Si       1.78683208      -0.00000002      10.12062657       0.00187279       0.00053196      -0.07254625
Si      -0.00495461       0.00806638      15.19486017      -0.00121999      -0.00012110      -0.01290462
Si       0.00000000       0.00000000       7.58805938      -0.00007585       0.00014527      -0.09398359
C        0.00000000       0.00000000       5.68435955       0.00001903       0.00009050       0.09016087
C        0.00000000       0.00000000      13.27662505      -0.00426135       0.00821647       0.20736744
C        1.78683208      -0.00000002       3.15844319       0.00117525      -0.00003985       0.09185600
C        0.89341603       1.54744198      10.75070869       0.00078984       0.00142336       0.02111621
C        0.89341603       1.54744198       0.63055283       0.00131383       0.00220678      -0.46456775
C        1.78683208      -0.00000002       8.22281833       0.00062992      -0.00017663       0.10897878
Si       1.78683208       3.09488391       5.05623624      -0.00001414       0.00010979      -0.05874251
Si       3.57366413       0.00000002      12.64850174       0.00103101      -0.00132823      -0.00194195
Si       3.57366413       0.00000002       2.52836107       0.00012213       0.00004577       0.14616593
Si       1.78683208       3.09488391      10.12062657       0.00039904      -0.00055793      -0.07336874
Si      -0.01388237       3.08688162      15.19494587      -0.00233816      -0.00107472      -0.01372198
Si       0.00000000       3.09488393       7.58805938      -0.00022060      -0.00005142      -0.09374448
C        0.00000000       3.09488393       5.68435955       0.00008099       0.00142671       0.09036451
C        0.00000000       3.09488393      13.27662505      -0.01277915      -0.00572790       0.20816397
C        1.78683208       3.09488391       3.15844319       0.00054636       0.00095208       0.09151610
C        3.57366413       0.00000002      10.75070869       0.00103178      -0.00004294       0.01503838
C        3.57366413       0.00000002       0.63055283       0.00268526       0.00002597      -0.46462971
C        1.78683208       3.09488391       8.22281833       0.00047951       0.00118656       0.10892556
Si      -0.89341603       1.54744195       5.05623624      -0.00000334      -0.00001517      -0.05870111
Si      -1.78683208       3.09488395      12.64850174       0.00091351      -0.00072299      -0.00165939
Si      -1.78683208       3.09488395       2.52836107      -0.00006402       0.00008690       0.14612711
Si      -0.89341603       1.54744195      10.12062657      -0.00015709       0.00143005      -0.07170627
Si       2.68529685       1.53952356      15.19533513       0.00079576      -0.00088626      -0.01441849
Si       2.68024811       1.54744196       7.58805938       0.00016327      -0.00005091      -0.09356373
C        2.68024811       1.54744196       5.68435955       0.00117885       0.00066797       0.09045707
C        2.68024811       1.54744196      13.27662505       0.00585440      -0.00690315       0.21716257
C       -0.89341603       1.54744195       3.15844319      -0.00061886       0.00089474       0.09172976
C       -1.78683208       3.09488395      10.75070869      -0.00050805       0.00225666       0.01523481
C       -1.78683208       3.09488395       0.63055283      -0.00121819       0.00219804      -0.46474669
C       -0.89341603       1.54744195       8.22281833      -0.00059264       0.00057387       0.10846636
C        0.04148787       0.08252690      18.94593588      -0.00071271      -0.00108783       0.00713070
C        1.38164956       0.85671924      18.94696795       0.00375355      -0.00122282       0.01124935
C       -1.29890004       2.40395560      18.94940164       0.00238110      -0.00273951      -0.01462289
C        0.04172932       3.17793263      18.94724772      -0.00080450      -0.00164551      -0.00128709
C        2.72185147       0.08297472      18.94820410      -0.00365097       0.00130406      -0.00037281
C        4.06154046       0.85682012      18.94822902       0.00145653       0.00174244      -0.00197075
C        1.38197463       2.40390648      18.94671321       0.00209725       0.00281896       0.00663267
C        2.72200238       3.17788494      18.94482597      -0.00216847       0.00271508       0.00614956
Si      -0.89341603       4.64232588       5.05623624       0.00011056       0.00011699      -0.05874019
Si      -1.78683208       6.18976788      12.64850174       0.00137554       0.00116882       0.02283731
Si      -1.78683208       6.18976788       2.52836107       0.00010490       0.00000051       0.14612865
Si      -0.89341603       4.64232588      10.12062657      -0.00235076      -0.00178409      -0.07253982
Si      -2.67486926       4.63439053      15.19498071      -0.00034196      -0.00178332      -0.01327538
Si      -2.68024811       4.64232589       7.58805938       0.00011416      -0.00015272      -0.09351102
C       -2.68024811       4.64232589       5.68435955       0.00003677       0.00008639       0.09052289
C       -2.68024811       4.64232589      13.27662505       0.00566774      -0.00699571       0.20913199
C       -0.89341603       4.64232588       3.15844319       0.00003600       0.00063918       0.09167680
C       -1.78683208       6.18976788      10.75070869      -0.00101044      -0.00092225       0.02108690
C       -1.78683208       6.18976788       0.63055283       0.00135651      -0.00064843      -0.46498632
C       -0.89341603       4.64232588       8.22281833       0.00066463       0.00123207       0.10898238
Si      -0.89341603       7.73720981       5.05623624       0.00009462      -0.00011493      -0.05875202
Si       0.89341603       4.64232591      12.64850174       0.00009436       0.00056461       0.04780684
Si       0.89341603       4.64232591       2.52836107      -0.00003368       0.00010002       0.14619987
Si      -0.89341603       7.73720981      10.12062657      -0.00110069       0.00171261      -0.07170550
Si      -2.66544259       7.74522036      15.19491011       0.00081941       0.00082635      -0.01348338
Si      -2.68024811       7.73720982       7.58805938       0.00033167       0.00009179      -0.09373214
C       -2.68024811       7.73720982       5.68435955       0.00118656      -0.00053762       0.09038405
C       -2.68024811       7.73720982      13.27662505       0.01563565       0.00718109       0.20794182
C       -0.89341603       7.73720981       3.15844319       0.00048388      -0.00043734       0.09153230
C        0.89341603       4.64232591      10.75070869       0.00038927      -0.00035044       0.02683306
C        0.89341603       4.64232591       0.63055283       0.00003548       0.00154266      -0.46484928
C       -0.89341603       7.73720981       8.22281833       0.00096648      -0.00092688       0.10846816
Si      -3.57366413       6.18976784       5.05623624      -0.00001774      -0.00000617      -0.05874996
Si      -4.46708018       7.73720984      12.64850174      -0.00033810       0.00074948       0.04755255
Si      -4.46708018       7.73720984       2.52836107       0.00003728      -0.00010747       0.14622686
Si      -3.57366413       6.18976784      10.12062657       0.00137168      -0.00106495      -0.07338443
Si      -0.00485623       6.19811182      15.19522137      -0.00002057       0.00022497      -0.01428582
Si       0.00000000       6.18976786       7.58805938      -0.00007199       0.00018178      -0.09410829
C        0.00000000       6.18976786       5.68435955       0.00003754      -0.00004525       0.09010508
C        0.00000000       6.18976786      13.27662505      -0.00488844       0.00818819       0.21552478
C       -3.57366413       6.18976784       3.15844319       0.00061295      -0.00111303       0.09154413
C       -4.46708018       7.73720984      10.75070869       0.00146424      -0.00062581       0.02681326
C       -4.46708018       7.73720984       0.63055283       0.00132155      -0.00213736      -0.46491150
C       -3.57366413       6.18976784       8.22281833       0.00012187      -0.00076079       0.10911659
C       -2.63885269       4.72544329      18.94595423      -0.00235924      -0.00153135       0.00735104
C       -1.29837126       5.49909663      18.94700743       0.00297322      -0.00136886       0.01064360
C       -3.97975376       7.04593453      18.94645222       0.00372373      -0.00091711       0.00237210
C       -2.63876123       7.82004118      18.94761038      -0.00240398      -0.00204943      -0.00338460
C        0.04196783       4.72543935      18.94671948      -0.00277448       0.00160565       0.00650001
C        1.38201017       5.49890191      18.94482347       0.00152389       0.00132515       0.00643984
C       -1.29829994       7.04616339      18.94816840       0.00116934       0.00050779       0.00062555
C        0.04187920       7.81951735      18.94827205      -0.00331107       0.00065589      -0.00300948
Si       7.14732829      -0.00000002       5.05623624      -0.00011596       0.00005168      -0.05876488
Si       6.25391224       1.54744198      12.64850174      -0.00108681       0.00113103       0.04941943
Si       6.25391224       1.54744198       2.52836107      -0.00000360       0.00004731       0.14615616
Si       7.14732829      -0.00000002      10.12062657       0.00023243      -0.00173935      -0.07349036
Si       5.34493417      -0.00798494      15.19502814      -0.00121433      -0.00108243      -0.01410790
Si       5.36049621       0.00000000       7.58805938      -0.00031162      -0.00014501      -0.09378819
C        5.36049621       0.00000000       5.68435955       0.00005348       0.00009796       0.09032645
C        5.36049621       0.00000000      13.27662505      -0.01505818      -0.00751122       0.20950583
C        7.14732829      -0.00000002       3.15844319      -0.00122693      -0.00007173       0.09170765
C        6.25391224       1.54744198      10.75070869      -0.00076207      -0.00047565       0.02708811
C        6.25391224       1.54744198       0.63055283      -0.00115005       0.00078676      -0.46474129
C        7.14732829      -0.00000002       8.22281833      -0.00121870       0.00046048       0.10934568
Si       7.14732829       3.09488391       5.05623624      -0.00017021      -0.00005142      -0.05873865
Si       8.93416034       0.00000002      12.64850174       0.00175169       0.00089809       0.02459389
Si       8.93416034       0.00000002       2.52836107      -0.00011261       0.00003754       0.14621915
Si       7.14732829       3.09488391      10.12062657       0.00193347       0.00163599      -0.07260564
Si       5.35605376       3.10214109      15.19490567      -0.00149458       0.00220755      -0.01270896
Si       5.36049621       3.09488393       7.58805938      -0.00005631       0.00010799      -0.09405404
C        5.36049621       3.09488393       5.68435955       0.00006196       0.00009230       0.09018607
C        5.36049621       3.09488393      13.27662505      -0.00402018       0.00686253       0.20847481
C        7.14732829       3.09488391       3.15844319      -0.00069317       0.00022883       0.09152382
C        8.93416034       0.00000002      10.75070869      -0.00186071      -0.00127784       0.02129362
C        8.93416034       0.00000002       0.63055283      -0.00253382       0.00005991      -0.46475724
C        7.14732829       3.09488391       8.22281833      -0.00111534      -0.00017843       0.10874507
Si       4.46708018       1.54744195       5.05623624       0.00016095       0.00008510      -0.05874688
Si       3.57366413       3.09488395      12.64850174       0.00142850       0.00150924       0.02431672
Si       3.57366413       3.09488395       2.52836107       0.00006119       0.00001311       0.14617184
Si       4.46708018       1.54744195      10.12062657      -0.00161260      -0.00127115      -0.07255447
Si       8.05557943       1.55690387      15.19538609       0.00089654      -0.00004731      -0.01488052
Si       8.04074432       1.54744196       7.58805938       0.00020595       0.00024246      -0.09382264
C        8.04074432       1.54744196       5.68435955      -0.00124159       0.00072685       0.09033442
C        8.04074432       1.54744196      13.27662505       0.01328540       0.01020599       0.21792748
C        4.46708018       1.54744195       3.15844319       0.00060112       0.00029285       0.09158912
C        3.57366413       3.09488395      10.75070869       0.00018589       0.00038284       0.02146305
C        3.57366413       3.09488395       0.63055283       0.00129249       0.00082044      -0.46479580
C        4.46708018       1.54744195       8.22281833       0.00102227       0.00066849       0.10865276
C        5.40224318       0.08299928      18.94745226      -0.00218467      -0.00202989       0.00028796
C        6.74246070       0.85685238      18.94704742       0.00173112      -0.00269940       0.01178517
C        4.06125393       2.40433107      18.94628805       0.00408883      -0.00058441       0.00282847
C        5.40173643       3.17856951      18.94405450      -0.00069111      -0.00125598       0.00870987
C        8.08266654       0.08274920      18.94679602      -0.00395153       0.00103538       0.00521960
C        9.42217907       0.85649606      18.94793051       0.00096545       0.00141899      -0.00060370
C        6.74232602       2.40410624      18.94682732       0.00048208       0.00117139       0.00561683
C        8.08248016       3.17748478      18.94803895      -0.00498254       0.00069548      -0.00194324
Si       4.46708018       4.64232588       5.05623624       0.00002674      -0.00014064      -0.05874148
Si       3.57366413       6.18976788      12.64850174       0.00017689      -0.00083638      -0.00101764
Si       3.57366413       6.18976788       2.52836107      -0.00001877      -0.00012316       0.14621067
Si       4.46708018       4.64232588      10.12062657      -0.00117165       0.00065615      -0.07175512
Si       2.69342140       4.65080590      15.19478480       0.00353527       0.00138505      -0.01215798
Si       2.68024811       4.64232589       7.58805938       0.00021366       0.00017201      -0.09374654
C        2.68024811       4.64232589       5.68435955       0.00005734       0.00001620       0.09039073
C        2.68024811       4.64232589      13.27662505       0.01206079       0.00814500       0.20677352
C        4.46708018       4.64232588       3.15844319      -0.00005811      -0.00070345       0.09156290
C        3.57366413       6.18976788      10.75070869      -0.00141154      -0.00074176       0.01509315
C        3.57366413       6.18976788       0.63055283      -0.00124621      -0.00220241      -0.46475724
C        4.46708018       4.64232588       8.22281833       0.00033681      -0.00086132       0.10875946
Si       4.46708018       7.73720981       5.05623624       0.00007430      -0.00001594      -0.05870394
Si       6.25391224       4.64232591      12.64850174      -0.00129172      -0.00070962       0.02563236
Si       6.25391224       4.64232591       2.52836107      -0.00004448      -0.00002108       0.14620758
Si       4.46708018       7.73720981      10.12062657      -0.00227157      -0.00087392      -0.07249431
Si       2.68575487       7.72827989      15.19493782       0.00113926      -0.00208979      -0.01252847
Si       2.68024811       7.73720982       7.58805938       0.00002905      -0.00021134      -0.09349842
C        2.68024811       7.73720982       5.68435955      -0.00110840      -0.00056024       0.09057919
C        2.68024811       7.73720982      13.27662505       0.00398701      -0.00908756       0.20899855
C        4.46708018       7.73720981       3.15844319      -0.00065820      -0.00106315       0.09175367
C        6.25391224       4.64232591      10.75070869       0.00119633      -0.00095568       0.02158467
C        6.25391224       4.64232591       0.63055283       0.00012958      -0.00139791      -0.46491742
C        4.46708018       7.73720981       8.22281833       0.00010413      -0.00090194       0.10878723
Si       1.78683208       6.18976784       5.05623624      -0.00019258      -0.00010644      -0.05873531
Si       0.89341603       7.73720984      12.64850174      -0.00183654      -0.00061681       0.02497158
Si       0.89341603       7.73720984       2.52836107      -0.00005785      -0.00006042       0.14616516
Si       1.78683208       6.18976784      10.12062657       0.00263358       0.00104695      -0.07255705
Si       5.34703838       6.18345893      15.19511426      -0.00396156      -0.00287449      -0.01270588
Si       5.36049621       6.18976786       7.58805938      -0.00019155      -0.00016275      -0.09382418
C        5.36049621       6.18976786       5.68435955      -0.00000977      -0.00132412       0.09039639
C        5.36049621       6.18976786      13.27662505      -0.01183402      -0.00674323       0.21467194
C        1.78683208       6.18976784       3.15844319      -0.00055844      -0.00045997       0.09146391
C        0.89341603       7.73720984      10.75070869       0.00081633       0.00088395       0.02160961
C        0.89341603       7.73720984       0.63055283      -0.00122359      -0.00070371      -0.46484260
C        1.78683208       6.18976784       8.22281833      -0.00140022      -0.00064046       0.10875046
C        2.72252074       4.72573593      18.94039983      -0.00085412      -0.00178126       0.01076572
C        4.06188933       5.49907702      18.93803414       0.00302130      -0.00193938      -0.00711424
C        1.38161236       7.04592831      18.94630711       0.00358463      -0.00184297       0.00291974
C        2.72228735       7.81948126      18.94408025      -0.00110249      -0.00100607       0.00797685
C        5.40122301       4.72597649      18.94145772      -0.00205868       0.00052605       0.00766729
C        6.74103896       5.49903109      18.94489397       0.00271174       0.00091351       0.00756264
C        4.06216721       7.04499896      18.94140580       0.00087880       0.00312929       0.00992369
C        5.40174532       7.81881825      18.94495730      -0.00302953       0.00329950       0.00611537
C        4.04257674       5.49597447      23.36517007      -0.00034170      -0.00004371       0.00526536
O        4.05310639       5.54078823      24.53804193      -0.00003445       0.00072042       0.00437756
O        4.03220517       5.45149943      22.18516039      -0.00058261      -0.00115494      -0.00448452
