48
Lattice="8.315575849598094 0.0 0.0 4.157787924799047 7.20149657514819 0.0 0.0 0.0 21.526423099368543" Properties=species:S:1:pos:R:3:forces:R:3 energy=-281861.50201610464 free_energy=-281861.50201610464 pbc="T T T"
C        1.50750097       1.57661815      14.28263368       0.00788660      -0.00372604       0.01344867
C        2.89242812       2.40444651      14.30475650       0.00179129      -0.01155711      -0.00203014
C        2.89304211       3.97555240      14.28261468       0.00397801       0.01040731       0.00045817
C        4.27763095       4.80420482      14.30313528       0.00736493       0.00733613       0.00996688
C        4.27910207       6.37730879      14.28438078       0.00613260       0.00250117       0.00252122
C        5.66441717       7.20462023      14.30911468       0.00701397       0.00551630      -0.00833577
C        4.27894603       1.57525329      14.28029609       0.01013735      -0.00432922       0.00189002
C        5.66464671       2.40118330      14.30184901       0.00374044       0.01658464      -0.00267523
C        5.66552688       3.97807034      14.27523995       0.00447526      -0.01710298      -0.00708596
C        7.05139082       4.80431406      14.30376722       0.00336737       0.00541963       0.00810155
C        7.05158370       6.37725208      14.28505242       0.00744771       0.00228828      -0.00322571
C        8.43641501       7.20367777      14.30941280       0.00362937       0.00030930      -0.00047283
C        7.05201264       1.57552096      14.28096847      -0.00014938      -0.00683245      -0.00051628
C        8.43647830       2.40458841      14.30580803       0.01098812      -0.01346847      -0.00826430
C        8.43780591       3.97570304      14.28341311       0.00783981       0.00829181      -0.00216795
C        9.82225400       4.80322276      14.30972058       0.00672909      -0.00205097      -0.01308974
C        9.82318075       6.37617077      14.28601437       0.00582406      -0.00072479      -0.01219371
C       11.20806441       7.20397714      14.30933841       0.00865228      -0.00151901      -0.00149561
Pt       3.00284680       1.20024997       7.50000000       0.02408172      -0.11628842      -0.71112574
Pt       5.77470538       1.20024997       7.50000000       0.02336773      -0.11879602      -0.71024282
Pt       8.54656396       1.20024997       7.50000000       0.02294118      -0.11677076      -0.71205237
Pt       4.38877609       3.60074992       7.50000000       0.02336387      -0.11735569      -0.70612931
Pt       7.16063467       3.60074992       7.50000000       0.02456638      -0.11774907      -0.70622907
Pt       9.93249325       3.60074992       7.50000000       0.02408918      -0.11601666      -0.70646947
Pt       5.77470538       6.00124987       7.50000000       0.02372151      -0.11888652      -0.70878964
Pt       8.54656396       6.00124987       7.50000000       0.02345952      -0.11593361      -0.71100233
Pt      11.31842254       6.00124987       7.50000000       0.02417146      -0.11527644      -0.71128001
Pt       1.61691751       2.00041662       9.76321306      -0.03187499       0.12044873       0.70945298
Pt       4.38877609       2.00041662       9.76321306      -0.03467775       0.11992782       0.70124396
Pt       7.16063467       2.00041662       9.76321306      -0.03061233       0.12000727       0.70061841
Pt       3.00284680       4.40091657       9.76321306      -0.03384266       0.11878317       0.70993146
Pt       5.77470538       4.40091657       9.76321306      -0.03237790       0.12458512       0.69543918
Pt       8.54656396       4.40091657       9.76321306      -0.03068740       0.11858699       0.70928432
Pt       4.38877609       6.80141652       9.76321306      -0.03167985       0.11771719       0.71077890
Pt       7.16063467       6.80141652       9.76321306      -0.03367785       0.11658050       0.71225960
Pt       9.93249325       6.80141652       9.76321306      -0.03241107       0.12113135       0.70388963
Pt       1.51620313       0.86350354      12.18416929      -0.00320745      -0.00452334       0.00618042
Pt       4.28802196       0.86432804      12.18357058      -0.00437525      -0.00474703       0.00406054
Pt       7.05949191       0.86486753      12.18343957       0.00005014      -0.00905285       0.00801541
Pt       2.90145837       3.26380758      12.18454149      -0.00044300       0.00079370      -0.00348179
Pt       5.67398317       3.26631819      12.18215531      -0.00453517      -0.01132648       0.00618530
Pt       8.44664502       3.26345547      12.18435487      -0.00732996       0.00432537       0.00173035
Pt       4.28676955       5.66574833      12.18459454       0.00106212      -0.00339129      -0.00130998
Pt       7.06071667       5.66487538      12.18470163      -0.00541217       0.00426983      -0.00044994
Pt       9.83148738       5.66450304      12.18287717      -0.00185608       0.00579707       0.02491682
C        5.63612459       3.18386374      17.37946907       0.00042500      -0.00132103       0.00043760
O        6.80943249       3.18323051      17.37915775      -0.00258962      -0.00132669       0.00703480
O        4.46284141       3.18561310      17.37631068      -0.00055742      -0.00153572       0.00226926
