179
Lattice="10.720992125991367 0.0 0.0 -5.360496062995684 9.284647205911675 0.0 0.0 0.0 34.99999747733031" Properties=species:S:1:pos:R:3:forces:R:3 energy=-73227.27733049844 free_energy=-73227.27733049844 pbc="T T T"
Si       1.78683208      -0.00000002       5.05623624       0.00033013      -0.00002751      -0.02528011
Si       0.89341603       1.54744198      12.64850174      -0.00158714      -0.00042526      -0.16352113
Si       0.89341603       1.54744198       2.52836107       0.00027125       0.00029285       0.27108915
Si       1.78683208      -0.00000002      10.12062657      -0.00074485      -0.00115854      -0.07264549
Si       0.00085804      -0.00043354      15.17204597      -0.00231348       0.00031187      -0.01000442
Si       0.00000000       0.00000000       7.58805938      -0.00006505       0.00000848      -0.09745509
C        0.00000000       0.00000000       5.68435955      -0.00002005       0.00000334       0.08529403
C        0.00000000       0.00000000      13.27662505       0.00196432       0.00052322      -0.03032565
C        1.78683208      -0.00000002       3.15844319       0.00193167      -0.00002391       0.08471116
C        0.89341603       1.54744198      10.75070869      -0.00093074       0.00167585       0.03604815
C        0.89341603       1.54744198       0.63055283       0.00272537       0.00463339      -0.19359147
C        1.78683208      -0.00000002       8.22281833       0.00218441       0.00031959       0.10367279
Si       1.78683208       3.09488391       5.05623624       0.00015967       0.00028539      -0.02528809
Si       3.57366413       0.00000002      12.64850174       0.00248549      -0.00093588      -0.15843369
Si       3.57366413       0.00000002       2.52836107       0.00030133       0.00008382       0.27110740
Si       1.78683208       3.09488391      10.12062657      -0.00071580       0.00130304      -0.07267069
Si       0.00331771       3.09282298      15.17153594      -0.00369545       0.00179823      -0.00287835
Si       0.00000000       3.09488393       7.58805938       0.00009822       0.00023500      -0.09752991
C        0.00000000       3.09488393       5.68435955       0.00000231       0.00219238       0.08529095
C        0.00000000       3.09488393      13.27662505       0.00317171       0.00086286      -0.03467081
C        1.78683208       3.09488391       3.15844319       0.00097239       0.00174347       0.08443323
C        3.57366413       0.00000002      10.75070869       0.00283413      -0.00170156       0.03771911
C        3.57366413       0.00000002       0.63055283       0.00540574      -0.00002237      -0.19399128
C        1.78683208       3.09488391       8.22281833       0.00117911       0.00138351       0.10361134
Si      -0.89341603       1.54744195       5.05623624      -0.00018718       0.00029645      -0.02524900
Si      -1.78683208       3.09488395      12.64850174       0.00035456       0.00366639      -0.15872294
Si      -1.78683208       3.09488395       2.52836107      -0.00025660       0.00029953       0.27105906
Si      -0.89341603       1.54744195      10.12062657       0.00169410       0.00014192      -0.07286635
Si       2.67930489       1.55001478      15.17160673       0.00178435      -0.00189979       0.00660002
Si       2.68024811       1.54744196       7.58805938       0.00027691       0.00031959      -0.09781248
C        2.68024811       1.54744196       5.68435955       0.00187639       0.00107806       0.08518888
C        2.68024811       1.54744196      13.27662505       0.00142053       0.00339411      -0.01941929
C       -0.89341603       1.54744195       3.15844319      -0.00092791       0.00169898       0.08467697
C       -1.78683208       3.09488395      10.75070869       0.00039492       0.00336197       0.03761652
C       -1.78683208       3.09488395       0.63055283      -0.00273437       0.00462953      -0.19397354
C       -0.89341603       1.54744195       8.22281833      -0.00145859       0.00171621       0.10353524
C        0.03408071       0.10283058      18.60734234      -0.00132618      -0.00045817      -0.00004705
C        1.37437724       0.87660514      18.60881624       0.00022857      -0.00006094       0.00401581
C       -1.30723037       2.42340931      18.60975785       0.00035327      -0.00153212      -0.00205148
C        0.03411748       3.19778190      18.60801005      -0.00072916      -0.00204351      -0.00371987
C        2.71381288       0.10290797      18.60940377       0.00136037       0.00244795       0.00092123
C        4.05279164       0.87673725      18.60995460       0.00394099       0.00170876      -0.00565103
C        1.37496545       2.42342131      18.60874051       0.00032884      -0.00184477      -0.00014038
C        2.71404705       3.19605014      18.60756659       0.00144470      -0.00179900      -0.00368850
Si      -0.89341603       4.64232588       5.05623624      -0.00003702       0.00020235      -0.02534876
Si      -1.78683208       6.18976788      12.64850174      -0.00247109      -0.00118914      -0.16063790
Si      -1.78683208       6.18976788       2.52836107       0.00026457      -0.00009333       0.27098939
Si      -0.89341603       4.64232588      10.12062657      -0.00079473      -0.00098499      -0.07281081
Si      -2.68313590       4.64151693      15.17223434       0.00261327       0.00051833      -0.01235698
Si      -2.68024811       4.64232589       7.58805938      -0.00013061      -0.00003600      -0.09758082
C       -2.68024811       4.64232589       5.68435955      -0.00000026      -0.00002314       0.08535317
C       -2.68024811       4.64232589      13.27662505      -0.00219675      -0.00027177      -0.02744447
C       -0.89341603       4.64232588       3.15844319       0.00002005       0.00111329       0.08441394
C       -1.78683208       6.18976788      10.75070869      -0.00101610      -0.00071528       0.03725657
C       -1.78683208       6.18976788       0.63055283       0.00274362      -0.00158020      -0.19414271
C       -0.89341603       4.64232588       8.22281833       0.00019849       0.00142311       0.10376124
Si      -0.89341603       7.73720981       5.05623624       0.00016224      -0.00008305      -0.02530351
Si       0.89341603       4.64232591      12.64850174       0.00041652      -0.00169590      -0.16199955
Si       0.89341603       4.64232591       2.52836107      -0.00014038       0.00027614       0.27113723
Si      -0.89341603       7.73720981      10.12062657      -0.00028539       0.00110018      -0.07279333
Si      -2.67922202       7.73592898      15.17129808      -0.00187228       0.00142311       0.00010619
Si      -2.68024811       7.73720982       7.58805938       0.00036381      -0.00030108      -0.09755562
C       -2.68024811       7.73720982       5.68435955       0.00191470      -0.00112254       0.08530149
C       -2.68024811       7.73720982      13.27662505       0.00332032      -0.00228365      -0.03694238
C       -0.89341603       7.73720981       3.15844319       0.00097548      -0.00053119       0.08437358
C        0.89341603       4.64232591      10.75070869       0.00076079      -0.00035558       0.03747383
C        0.89341603       4.64232591       0.63055283      -0.00000720       0.00312132      -0.19420622
C       -0.89341603       7.73720981       8.22281833       0.00103101      -0.00088806       0.10349282
Si      -3.57366413       6.18976784       5.05623624       0.00015478      -0.00024246      -0.02529451
Si      -4.46708018       7.73720984      12.64850174      -0.00011621       0.00227260      -0.16134161
Si      -4.46708018       7.73720984       2.52836107       0.00015221      -0.00037358       0.27105804
Si      -3.57366413       6.18976784      10.12062657       0.00157686      -0.00036407      -0.07279410
Si      -0.00016498       6.19210260      15.17156420       0.00226334      -0.00198541       0.00772077
Si       0.00000000       6.18976786       7.58805938       0.00008587       0.00018306      -0.09784102
C        0.00000000       6.18976786       5.68435955      -0.00004088      -0.00003214       0.08525675
C        0.00000000       6.18976786      13.27662505      -0.00111046       0.00120610      -0.01865027
C       -3.57366413       6.18976784       3.15844319       0.00106109      -0.00170207       0.08449776
C       -4.46708018       7.73720984      10.75070869       0.00237467      -0.00023217       0.03671510
C       -4.46708018       7.73720984       0.63055283       0.00264798      -0.00471129      -0.19357244
C       -3.57366413       6.18976784       8.22281833       0.00058056      -0.00167276       0.10347353
C       -2.64631458       4.74453934      18.60836080      -0.00012161       0.00280225      -0.00547311
C       -1.30560884       5.51852068      18.61089342      -0.00193784       0.00228263      -0.01287043
C       -3.98753370       7.06525869      18.60749759      -0.00156426       0.00398110       0.00843887
C       -2.64644312       7.83945741      18.60796750      -0.00068417       0.00441356      -0.00125727
C        0.03408929       4.74528818      18.60930679      -0.00211293      -0.00082378       0.00016686
C        1.37377348       5.51919376      18.60683475      -0.00305653      -0.00213864       0.01328438
C       -1.30548922       7.06505992      18.61058923      -0.00143699       0.00340491      -0.01011960
C        0.03406228       7.83857172      18.60940660      -0.00060241       0.00153366       0.00095414
Si       7.14732829      -0.00000002       5.05623624      -0.00031316      -0.00000489      -0.02530557
Si       6.25391224       1.54744198      12.64850174      -0.00396850       0.00023500      -0.16347768
Si       6.25391224       1.54744198       2.52836107      -0.00004499       0.00012007       0.27115342
Si       7.14732829      -0.00000002      10.12062657      -0.00137863      -0.00144162      -0.07261001
Si       5.36092343      -0.00133889      15.17188837      -0.00168407       0.00215278      -0.00777013
Si       5.36049621       0.00000000       7.58805938      -0.00010207      -0.00009642      -0.09753274
C        5.36049621       0.00000000       5.68435955      -0.00001208       0.00000206       0.08532360
C        5.36049621       0.00000000      13.27662505       0.00097702      -0.00067903      -0.03141271
C        7.14732829      -0.00000002       3.15844319      -0.00201703       0.00000000       0.08442757
C        6.25391224       1.54744198      10.75070869      -0.00293646       0.00041472       0.03667602
C        6.25391224       1.54744198       0.63055283      -0.00267446       0.00154858      -0.19419851
C        7.14732829      -0.00000002       8.22281833      -0.00166762       0.00035533       0.10363320
Si       7.14732829       3.09488391       5.05623624      -0.00016301       0.00011261      -0.02531225
Si       8.93416034       0.00000002      12.64850174       0.00149201      -0.00477582      -0.15717694
Si       8.93416034       0.00000002       2.52836107      -0.00041600       0.00012470       0.27118299
Si       7.14732829       3.09488391      10.12062657      -0.00123362       0.00138917      -0.07258893
Si       5.36349359       3.09399212      15.17171335      -0.00453131       0.00026380      -0.00599684
Si       5.36049621       3.09488393       7.58805938       0.00003985       0.00001131      -0.09754303
C        5.36049621       3.09488393       5.68435955      -0.00001003      -0.00001131       0.08532849
C        5.36049621       3.09488393      13.27662505       0.00263847      -0.00028539      -0.03343283
C        7.14732829       3.09488391       3.15844319      -0.00099964       0.00058158       0.08435327
C        8.93416034       0.00000002      10.75070869      -0.00103153      -0.00108886       0.03734373
C        8.93416034       0.00000002       0.63055283      -0.00540035      -0.00003162      -0.19366912
C        7.14732829       3.09488391       8.22281833      -0.00068391       0.00022137       0.10358178
Si       4.46708018       1.54744195       5.05623624       0.00018512       0.00008716      -0.02531894
Si       3.57366413       3.09488395      12.64850174       0.00193116       0.00036715      -0.16034042
Si       3.57366413       3.09488395       2.52836107       0.00011493      -0.00000926       0.27125447
Si       4.46708018       1.54744195      10.12062657       0.00186945       0.00015375      -0.07270540
Si       8.03899167       1.54951354      15.17084005       0.00261713      -0.00221346       0.01698856
Si       8.04074432       1.54744196       7.58805938      -0.00029491       0.00024605      -0.09782713
C        8.04074432       1.54744196       5.68435955      -0.00194247       0.00109118       0.08517756
C        8.04074432       1.54744196      13.27662505      -0.00402532       0.00297477      -0.02640729
C        4.46708018       1.54744195       3.15844319       0.00101070       0.00062683       0.08438052
C        3.57366413       3.09488395      10.75070869       0.00219701       0.00266675       0.03741701
C        3.57366413       3.09488395       0.63055283       0.00271046       0.00153186      -0.19428078
C        4.46708018       1.54744195       8.22281833       0.00044403       0.00057130       0.10366765
C        5.39390574       0.10280900      18.60795327       0.00274928       0.00118425       0.00101379
C        6.73449395       0.87676695      18.60880508       0.00294854      -0.00071322       0.00571222
C        4.05250494       2.42332618      18.60904773       0.00442281      -0.00007251      -0.00971183
C        5.39345817       3.19714893      18.60637335       0.00443772       0.00056976      -0.00347587
C        8.07492974       0.10339606      18.60889437      -0.00043914      -0.00192627       0.00081658
C        9.41424409       0.87684863      18.60911118      -0.00044917      -0.00182625       0.00230551
C        6.73424746       2.42323735      18.60888935       0.00420992       0.00063403       0.00065075
C        8.07437246       3.19624295      18.60977289       0.00165373       0.00057001      -0.00459893
Si       4.46708018       4.64232588       5.05623624      -0.00006376      -0.00021572      -0.02531637
Si       3.57366413       6.18976788      12.64850174      -0.00306347       0.00298222      -0.16136218
Si       3.57366413       6.18976788       2.52836107      -0.00009179      -0.00036124       0.27123776
Si       4.46708018       4.64232588      10.12062657      -0.00067132      -0.00127938      -0.07290183
Si       2.67798413       4.64119354      15.17086648       0.00247289       0.00043812       0.00460690
Si       2.68024811       4.64232589       7.58805938      -0.00004319       0.00004319      -0.09757722
C        2.68024811       4.64232589       5.68435955      -0.00002314      -0.00000874       0.08527475
C        2.68024811       4.64232589      13.27662505      -0.00169076      -0.00071271      -0.04137702
C        4.46708018       4.64232588       3.15844319       0.00001594      -0.00116600       0.08435867
C        3.57366413       6.18976788      10.75070869      -0.00319511      -0.00240295       0.03692207
C        3.57366413       6.18976788       0.63055283      -0.00269606      -0.00472723      -0.19404296
C        4.46708018       4.64232588       8.22281833       0.00016584      -0.00084306       0.10363166
Si       4.46708018       7.73720981       5.05623624      -0.00017818      -0.00029748      -0.02525800
Si       6.25391224       4.64232591      12.64850174       0.00202166      -0.00248471      -0.16111972
Si       6.25391224       4.64232591       2.52836107      -0.00006865      -0.00008408       0.27115702
Si       4.46708018       7.73720981      10.12062657      -0.00092483       0.00088986      -0.07245780
Si       2.68083722       7.73590314      15.17254133      -0.00054250       0.00102484      -0.01737372
Si       2.68024811       7.73720982       7.58805938      -0.00034401      -0.00023988      -0.09751089
C        2.68024811       7.73720982       5.68435955      -0.00188668      -0.00112126       0.08530920
C        2.68024811       7.73720982      13.27662505      -0.00200417      -0.00231914      -0.02564418
C        4.46708018       7.73720981       3.15844319      -0.00100710      -0.00166890       0.08467697
C        6.25391224       4.64232591      10.75070869       0.00062581      -0.00247494       0.03691744
C        6.25391224       4.64232591       0.63055283      -0.00006196      -0.00318585      -0.19427693
C        4.46708018       7.73720981       8.22281833      -0.00080861      -0.00197306       0.10362497
Si       1.78683208       6.18976784       5.05623624      -0.00016352      -0.00013627      -0.02529168
Si       0.89341603       7.73720984      12.64850174       0.00265801       0.00220678      -0.16115366
Si       0.89341603       7.73720984       2.52836107      -0.00023988      -0.00018640       0.27133366
Si       1.78683208       6.18976784      10.12062657       0.00142928       0.00029902      -0.07274242
Si       5.35939499       6.19194315      15.17145011       0.00260864      -0.00239755       0.00803881
Si       5.36049621       6.18976786       7.58805938       0.00008947      -0.00032396      -0.09777391
C        5.36049621       6.18976786       5.68435955      -0.00002700      -0.00220266       0.08522770
C        5.36049621       6.18976786      13.27662505      -0.00218595      -0.00160643      -0.02031300
C        1.78683208       6.18976784       3.15844319      -0.00094797      -0.00052990       0.08435044
C        0.89341603       7.73720984      10.75070869      -0.00015118       0.00096519       0.03646493
C        0.89341603       7.73720984       0.63055283      -0.00269812      -0.00163136      -0.19432475
C        1.78683208       6.18976784       8.22281833      -0.00141051      -0.00062529       0.10347919
C        2.71415433       4.74504626      18.60354704      -0.00130355      -0.00238033       0.00218415
C        4.05501879       5.51953626      18.60341464      -0.00156760      -0.00094925      -0.00716181
C        1.37381805       7.06599597      18.60782104      -0.00289866      -0.00087392       0.00698260
C        2.71503143       7.84047268      18.60667023      -0.00296088      -0.00197898      -0.00973445
C        5.39445773       4.74498330      18.60520046       0.00144907       0.00099476       0.00528927
C        6.73381232       5.51851943      18.60693334      -0.00016301       0.00305344       0.01296916
C        4.05559302       7.06657794      18.60598706      -0.00328304      -0.00097471      -0.01727807
C        5.39450691       7.83874753      18.60772146      -0.00231785       0.00127167      -0.00547928
C        3.94958967       5.26960555      21.89935230       0.00065075       0.00245129       0.00499488
O        3.91122593       6.44186175      21.95237106      -0.00198592      -0.00439402       0.00494089
O        3.98800061       4.09767086      21.83603633       0.00152286      -0.00680134       0.01195254
