48
Lattice="8.315575849598094 0.0 0.0 4.157787924799047 7.20149657514819 0.0 0.0 0.0 19.999999365264614" Properties=species:S:1:pos:R:3:forces:R:3 energy=-281861.43729001854 free_energy=-281861.43729001854 pbc="T T T"
Pt       3.00284680       1.20024997       4.65499339      -0.00485193      -0.11476890      -0.70571331
Pt       5.77470538       1.20024997       4.65499339      -0.00471515      -0.11604288      -0.70290695
Pt       8.54656396       1.20024997       4.65499339      -0.00519774      -0.11591947      -0.70289924
Pt       4.38877609       3.60074992       4.65499339      -0.00465473      -0.11425622      -0.70265190
Pt       7.16063467       3.60074992       4.65499339      -0.00504373      -0.11415672      -0.70200269
Pt       9.93249325       3.60074992       4.65499339      -0.00495143      -0.11428168      -0.70240276
Pt       5.77470538       6.00124987       4.65499339      -0.00405077      -0.11261278      -0.70971240
Pt       8.54656396       6.00124987       4.65499339      -0.00573382      -0.11263129      -0.70929923
Pt      11.31842254       6.00124987       4.65499339      -0.00473777      -0.11610176      -0.70373767
Pt       1.61691751       2.00041662       6.91820644       0.00460356       0.11549164       0.70141057
Pt       4.38877609       2.00041662       6.91820644       0.00983241       0.11548778       0.70179546
Pt       7.16063467       2.00041662       6.91820644       0.00666224       0.11557546       0.70036130
Pt       3.00284680       4.40091657       6.91820644       0.00679337       0.11375692       0.70009622
Pt       5.77470538       4.40091657       6.91820644       0.00778556       0.11398677       0.70536184
Pt       8.54656396       4.40091657       6.91820644       0.00593642       0.11426805       0.70493067
Pt       4.38877609       6.80141652       6.91820644       0.00544174       0.11421534       0.70175767
Pt       7.16063467       6.80141652       6.91820644       0.00728676       0.11286012       0.70340292
Pt       9.93249325       6.80141652       6.91820644       0.00796862       0.11522219       0.69988333
Pt       1.63899806       0.84062325       9.33438299       0.00365277       0.00127552      -0.00064869
Pt       4.41069379       0.84134505       9.33462655      -0.00282410      -0.00277628      -0.00254154
Pt       7.18282730       0.84256765       9.33470531      -0.00017021      -0.00781744      -0.00315294
Pt       3.02442239       3.24166900       9.33410019       0.00268243       0.00392068       0.00130638
Pt       5.79629958       3.24190142       9.33527886      -0.00061321      -0.00653754      -0.00712041
Pt       8.56893054       3.24186301       9.33509781       0.00319820      -0.00545922      -0.00542863
Pt       4.41034427       5.64232520       9.33424211       0.00270146       0.00056770       0.00356586
Pt       7.18261270       5.64228313       9.33522559       0.00084049      -0.00518617      -0.00137168
Pt       9.95446151       5.64309168       9.33404661       0.00089732      -0.00364685       0.00521060
C        1.64103579       1.55182376      11.43220768      -0.00329153       0.00101173      -0.00187768
C        3.02712639       2.37867638      11.45690409      -0.00286601       0.00140716       0.00278502
C        3.02672323       3.95207664      11.43290592      -0.00111432       0.00040701       0.00218261
C        4.41294273       4.77894033      11.45665995       0.00034967      -0.00006916       0.00547979
C        4.41253320       6.35253229      11.43299798       0.00097985       0.00186508       0.00003959
C        5.79856216       7.17953707      11.45694374       0.00000051       0.00088754       0.00365122
C        4.41290103       1.55196695      11.43225619      -0.00262253       0.00043503      -0.00342317
C        5.79887425       2.37980143      11.45047272      -0.00239215       0.00066026       0.00112331
C        5.79888908       3.95151019      11.43195009      -0.00178126      -0.00067466      -0.00258756
C        7.18486862       4.77855963      11.45596263      -0.00151721      -0.00112846      -0.00027588
C        7.18447651       6.35196077      11.43363201       0.00010259       0.00033013      -0.00131563
C        8.57079903       7.17966780      11.45672399      -0.00042166       0.00075513       0.00563072
C        7.18477224       1.55155921      11.42761535      -0.00310821       0.00237030      -0.00026637
C        8.57118797       2.37963976      11.45077758      -0.00464136       0.00103024       0.00353115
C        8.57059389       3.95153440      11.43218113      -0.00324036      -0.00043837      -0.00234819
C        9.95653288       4.77881777      11.45705002      -0.00186534       0.00116754       0.00379752
C        9.95633912       6.35243706      11.43248612      -0.00073945       0.00326916       0.00377412
C       11.34252135       7.18018023      11.45658122      -0.00093768       0.00337534       0.00520854
C        7.15856137       2.83894506      15.53190027      -0.00023834       0.00288503       0.00196612
O        7.15249011       2.89583479      14.35762165       0.00012033       0.00786372       0.00219881
O        7.16446591       2.78210290      16.70041390       0.00048517      -0.00184194       0.00323265
