101
Lattice="17.265850017958673 -0.00010359510010775204 0.0 -8.633011338229426 14.952692293502695 0.0 -0.0 0.0 15.000000722551901" Properties=species:S:1:pos:R:3:forces:R:3 energy=-26237.204665412457 free_energy=-26237.204665412457 pbc="T T T"
C        1.20362494       0.66229800       5.00898909       0.00008922       0.00236284      -0.00160205
C       -0.02969278       1.37447516       5.00723641       0.00081427      -0.00360880       0.00012161
C       -0.02939538       2.79839225       5.00931926      -0.00386231       0.00663550       0.00509824
C       -1.26265002       3.51052631       5.00678654      -0.00671778      -0.00082815       0.00471335
C       -1.26288777       4.93446799       5.01103957      -0.00238701       0.00541886       0.00300022
C       -2.49622269       5.64647977       5.01091233      -0.00079678       0.00802004      -0.00294237
C       -2.49585179       7.07061163       5.01345303      -0.00468378      -0.00073662      -0.00493369
C       -3.72914081       7.78263686       5.01303080      -0.00628352       0.00689081      -0.00610946
C       -3.72889531       9.20684559       5.01091823      -0.00556284      -0.00742098      -0.00327559
C       -4.96221528       9.91877641       5.01030422      -0.00814654       0.00411299       0.00078830
C       -4.96245636      11.34280774       5.00748600      -0.00136526       0.00160360       0.00035147
C       -6.19577663      12.05486364       5.00878771      -0.00078393      -0.00083818      -0.00026354
C       -6.19541356      13.47879020       5.00770564      -0.01290899       0.00755493      -0.00326427
C       -7.42885734      14.19095819       5.00881967      -0.00421507       0.00096931      -0.00478559
C        3.67001433       0.66257595       5.01174529       0.00542169      -0.00680494       0.00455805
C        2.43671317       1.37453615       5.01351287       0.00389239      -0.00272511       0.00342805
C        2.43685246       2.79855290       5.02335676       0.00475706      -0.00234125       0.00597936
C        1.20375311       3.51067502       5.01986748      -0.00559215      -0.00280225       0.00633854
C        1.20332144       4.93467390       5.02822688       0.00762204       0.00265106       0.00578987
C       -0.02978980       5.64675918       5.01992857       0.00221166       0.00058030       0.00558598
C       -0.02949588       7.07082605       5.02247350       0.00259759       0.00139277       0.00506636
C       -1.26268767       7.78285609       5.01592648       0.00180517      -0.00021417       0.00066823
C       -1.26244443       9.20697963       5.01338013      -0.00375304      -0.00600275       0.00253999
C       -2.49575927       9.91896899       5.00956570       0.00045046      -0.00130046      -0.00083407
C       -2.49603855      11.34298130       5.00697858       0.00395873      -0.00024888       0.00102227
C       -3.72930322      12.05499640       5.00559682       0.00102716       0.00011081       0.00033424
C       -3.72911274      13.47907613       5.00576448       0.00168279      -0.00183705       0.00125341
C       -4.96239976      14.19104029       5.00691582      -0.00164499       0.00624161       0.00063095
C        6.13667327       0.66236551       5.01384193       0.00712118      -0.00201369       0.00486761
C        4.90338652       1.37434600       5.01799612       0.00291923       0.00064689       0.00749657
C        4.90364808       2.79837257       5.03362934      -0.00259990       0.00322571       0.00436162
C        3.67029459       3.51012620       5.03841074      -0.00568445       0.00352190       0.00182677
C        3.66980608       4.93429685       5.05312624       0.00512164       0.00172830      -0.00765932
C        2.43663382       5.64675302       5.04496431      -0.00185197       0.00221038      -0.00421815
C        2.43686775       7.07081494       5.04470943       0.00000926       0.00793802      -0.00644653
C        1.20385721       7.78281274       5.03193545      -0.00191470      -0.00244203       0.00305550
C        1.20408924       9.20674342       5.02676642      -0.00505839       0.00079627       0.00628686
C       -0.02913708       9.91877064       5.01608777      -0.00057721      -0.00178100       0.00669721
C       -0.02934913      11.34269049       5.01276569      -0.00251557       0.00869393       0.00358926
C       -1.26267214      12.05481889       5.00852181       0.00293929      -0.00375381       0.00012804
C       -1.26244501      13.47876700       5.00929150      -0.00030750       0.00844864      -0.00196381
C       -2.49566106      14.19084155       5.00807624      -0.00980773       0.00837408       0.00196972
C        8.60307834       0.66268746       5.01469300       0.00577958      -0.00180620      -0.00302130
C        7.36978975       1.37472212       5.01825952       0.00369519      -0.00256519       0.00343988
C        7.37005989       2.79878620       5.02902815      -0.00566440       0.00200469       0.00593642
C        6.13673328       3.51077087       5.04177449       0.00471103       0.00053608       0.00175092
C        6.13677594       4.93474525       5.05710504      -0.00251145      -0.00060395      -0.00924080
C        4.90324591       5.64629789       5.06308764       0.00463981       0.00724357      -0.01808514
C        4.90298985       7.07113443       5.06238732       0.00048954      -0.00014270      -0.02338984
C        3.66952335       7.78330280       5.05095903       0.00444518      -0.00242609      -0.01586705
C        3.67011738       9.20706539       5.04435338      -0.00714844      -0.00292514      -0.00692141
C        2.43706479       9.91890152       5.03184631       0.00321928      -0.00007199       0.00392762
C        2.43695523      11.34294211       5.02301213      -0.00142876       0.00078573       0.00583538
C        1.20369588      12.05501923       5.01578107       0.00513141      -0.00265518       0.00188230
C        1.20402621      13.47907029       5.01383484      -0.00395461       0.00470949      -0.00449840
C       -0.02926806      14.19112607       5.01250389      -0.00463441       0.00290689      -0.00576570
C       11.06949595       0.66291837       5.01097840       0.00806324      -0.00621667      -0.00382400
C        9.83626614       1.37505219       5.01377318      -0.00077647      -0.00970257      -0.00198566
C        9.83637024       2.79899668       5.01594532      -0.00164602       0.00285495       0.00520083
C        8.60308178       3.51113048       5.02686729      -0.00034247      -0.00594953       0.00793417
C        8.60279825       4.93505722       5.03603406      -0.00186508       0.00194324       0.00584309
C        7.36957863       5.64709772       5.05315377       0.00682242      -0.00419167      -0.00605263
C        7.37007500       7.07084568       5.05638343       0.00228314       0.00443155      -0.01074181
C        6.13709856       7.78333603       5.06214401      -0.00405926      -0.00674683      -0.01943754
C        6.13683295       9.20754638       5.05387822       0.00355738      -0.00487018      -0.00868133
C        4.90320292       9.91930170       5.04587853      -0.00281999      -0.00429966      -0.00356226
C        4.90326338      11.34332613       5.03057298       0.00242404      -0.00252508       0.00633031
C        3.67004028      12.05521764       5.02192552       0.00149124      -0.00229805       0.00709907
C        3.67036497      13.47930124       5.01381440      -0.00094617      -0.00307324       0.00281382
C        2.43720145      14.19138461       5.01288597      -0.01005970       0.00247314      -0.00349927
C       13.53614852       0.66264575       5.00613267       0.00288915      -0.00566003       0.00008896
C       12.30289025       1.37471549       5.00742422      -0.00101610       0.00006325      -0.00132206
C       12.30308275       2.79873679       5.00696484      -0.00417496       0.00177638       0.00038078
C       11.06974775       3.51077999       5.01164440      -0.00293466       0.00202474       0.00504322
C       11.06943872       4.93480517       5.01510658      -0.00093485       0.00033939       0.00608966
C        9.83609960       5.64679718       5.02652505       0.00361086       0.00322108       0.00864405
C        9.83647433       7.07077139       5.02924895      -0.00376872       0.00596265       0.00675557
C        8.60323847       7.78289380       5.04216424       0.00034736      -0.00468275       0.00066103
C        8.60354622       9.20701046       5.03555176      -0.00248369      -0.00048414       0.00441278
C        7.37052812       9.91930071       5.04072129      -0.00793725      -0.00007096       0.00137940
C        7.36999623      11.34319890       5.02671894       0.00525148       0.00185711       0.00558726
C        6.13670249      12.05506239       5.02320657      -0.00033861       0.00244820       0.00707259
C        6.13699594      13.47908284       5.01271436      -0.00449660       0.00218158       0.00408137
C        4.90372538      14.19105085       5.01004913      -0.00588500       0.00988101       0.00271663
C       16.00260638       0.66271192       5.00586241       0.00551733      -0.00064535      -0.00183525
C       14.76921593       1.37488003       5.00437246       0.00892996      -0.00786989      -0.00004525
C       14.76954090       2.79881128       5.00413348       0.00187613       0.00175889       0.00110583
C       13.53620137       3.51089426       5.00575100       0.00112152      -0.00129712      -0.00027022
C       13.53596079       4.93492549       5.00887826       0.00643676      -0.00396644      -0.00259681
C       12.30260427       5.64688059       5.01241478       0.00468069       0.00497688      -0.00074613
C       12.30290450       7.07104915       5.01447314       0.00599761      -0.00488124      -0.00199749
C       11.06963201       7.78310502       5.01900264       0.00192936      -0.00321799       0.00440661
C       11.06996793       9.20719503       5.01596357       0.00135317      -0.00649486       0.00499977
C        9.83666107       9.91927783       5.02073973       0.00187639      -0.00628609       0.00694198
C        9.83644042      11.34320766       5.01474639       0.00591611       0.00115211       0.00384586
C        8.60319234      12.05536410       5.01677218       0.00281870      -0.00738061       0.00281176
C        8.60342971      13.47922398       5.01112887       0.00023474       0.00397313      -0.00268320
C        7.37007708      14.19135932       5.00944436      -0.00004165      -0.00248986      -0.00156323
C        4.98152507       7.15478756       8.30058308       0.00807198      -0.00538775      -0.00291897
O        5.99478014       6.56362183       8.29822598       0.00075950      -0.00215741      -0.01165481
O        3.96840201       7.74601566       8.31232290       0.00007765       0.00210779      -0.01206053
