101
Lattice="17.265850017958673 -0.00010359510010775204 0.0 -8.633011338229426 14.952692293502695 0.0 -0.0 0.0 15.000000722551901" Properties=species:S:1:pos:R:3:forces:R:3 energy=-25938.51826972005 free_energy=-25938.51826972005 pbc="T T T"
C        1.20560993       0.66403742       5.01698893      -0.00164628      -0.00347125      -0.00363451
C       -0.02771953       1.37610638       5.01698746      -0.00220421      -0.00315269      -0.00361754
C       -0.02780437       2.80005828       5.01039849      -0.00493112       0.00392505       0.00244718
C       -1.26113069       3.51226635       5.00946745      -0.00255053      -0.00560321      -0.00207077
C       -1.26116453       4.93618972       5.00054513       0.00092508       0.00582355      -0.00358335
C       -2.49437662       5.64847721       4.99877823       0.00268989      -0.00473803       0.00513475
C       -2.49408873       7.07240387       4.99283092      -0.00165193       0.00052322      -0.00281613
C       -3.72734574       7.78450259       4.99440604      -0.00208954      -0.00237621       0.00744077
C       -3.72707962       9.20846703       4.99715799      -0.00456782      -0.00307504       0.00060678
C       -4.96044276       9.92036922       5.00344797      -0.00003728       0.00783955      -0.00457759
C       -4.96031813      11.34447898       5.00997402      -0.00410579      -0.00180157       0.00106598
C       -6.19373500      12.05652485       5.01464578       0.00060344       0.00407443      -0.00068880
C       -6.19384817      13.48066556       5.01795620      -0.00164396      -0.00594002      -0.00848027
C       -7.42729052      14.19263338       5.01864388       0.00153572       0.00291229       0.00939533
C        3.67227602       0.66394738       5.00947065      -0.00362628      -0.00503345      -0.00207308
C        2.43882502       1.37594126       5.01039784       0.00593925      -0.00227620       0.00244460
C        2.43878279       2.79985872       5.00185587      -0.00519414       0.00634420      -0.00033784
C        1.20536053       3.51198003       5.00185924       0.00810463      -0.00130406      -0.00035070
C        1.20547042       4.93594154       4.99191786      -0.00302310       0.00723868       0.00324113
C       -0.02785985       5.64813690       4.99169018       0.00737392      -0.00433771       0.00161054
C       -0.02732930       7.07213831       4.98433424      -0.00629895       0.00143905       0.00094668
C       -1.26067466       7.78412837       4.98668382       0.00352473       0.00653317       0.00731273
C       -1.26039660       9.20827455       4.98701663      -0.00593693      -0.00419270      -0.00224997
C       -2.49370132       9.92016903       4.99462870       0.00065409       0.01145067       0.00263358
C       -2.49365294      11.34437385       5.00007258      -0.00182934      -0.00437396      -0.00318045
C       -3.72694299      12.05631489       5.00856885      -0.00059392       0.01032941      -0.00591277
C       -3.72693933      13.48061896       5.01006310      -0.01110305      -0.00813677      -0.00039055
C       -4.96054221      14.19247382       5.01415108       0.00500362       0.00633494       0.00061449
C        6.13890321       0.66402614       4.99881752      -0.00547028      -0.00007970       0.00510055
C        4.90544140       1.37588109       5.00055051       0.00457862       0.00369570      -0.00353527
C        4.90535024       2.79993087       4.99168128      -0.00745928       0.00421070       0.00159974
C        3.67191061       3.51193584       4.99190795       0.00774108       0.00096956       0.00323676
C        3.67200464       4.93601391       4.98320477      -0.00155757       0.00852141      -0.00169590
C        2.43870719       5.64806284       4.98321079       0.00810335       0.00291306      -0.00167507
C        2.43945464       7.07235954       4.97567914      -0.00440893       0.00053633       0.00105544
C        1.20596144       7.78418288       4.97794236       0.00255002       0.00257547       0.00237184
C        1.20606961       9.20832589       4.97748017      -0.00108501      -0.00401838       0.00286627
C       -0.02721929       9.92029565       4.98299317       0.00324010       0.00733536       0.00651003
C       -0.02715077      11.34457039       4.98800616      -0.00314394      -0.00895592      -0.00067954
C       -1.26042077      12.05643348       4.99578231      -0.00183243       0.00703017      -0.00105775
C       -1.26054030      13.48067712       4.99823280      -0.00579707      -0.00620279       0.00335786
C       -2.49386899      14.19270807       5.00369150       0.00145396      -0.00203374      -0.00754207
C        8.60523088       0.66425056       4.99449114      -0.00102304      -0.00302773       0.00734513
C        7.37191070       1.37623909       4.99288278       0.00126575      -0.00117782      -0.00279170
C        7.37157166       2.80027252       4.98669873       0.00386437       0.00631669       0.00732507
C        6.13830081       3.51239174       4.98431974       0.00440944      -0.00472337       0.00098088
C        6.13830035       4.93647889       4.97791540       0.00093948       0.00351830       0.00240810
C        4.90510229       5.64881232       4.97566411       0.00263924      -0.00361651       0.00106958
C        4.90537541       7.07273421       4.96940289      -0.00118811       0.00429477      -0.00615291
C        3.67246568       7.78455858       4.96940545       0.00428114       0.00119479      -0.00612360
C        3.67266736       9.20836394       4.97136879       0.00164602      -0.00139997      -0.00623672
C        2.43954319       9.92015324       4.97676678       0.00436496       0.00693915       0.00158637
C        2.43938375      11.34449662       4.98490029      -0.00314806      -0.00456885       0.00404615
C        1.20608125      12.05652503       4.98848265      -0.00120713       0.00364608       0.00192601
C        1.20573107      13.48069626       4.99415725       0.00247443      -0.00276959       0.00418858
C       -0.02748726      14.19272562       4.99570881      -0.00025377       0.00523734      -0.00398675
C       11.07148447       0.66428614       5.00349096       0.00675943       0.00384817      -0.00456808
C        9.83828079       1.37646445       4.99722214      -0.00036664      -0.00545742       0.00062658
C        9.83794004       2.80045682       4.99466856       0.00958842       0.00624238       0.00255182
C        8.60477267       3.51258779       4.98702943      -0.00064920      -0.00718932      -0.00227928
C        8.60480655       4.93656573       4.98296481       0.00479331       0.00641876       0.00657200
C        7.37158349       5.64864659       4.97744741      -0.00292463      -0.00296962       0.00285264
C        7.37130440       7.07278299       4.97673463       0.00381346       0.00724974       0.00160797
C        6.13831987       7.78481274       4.97136034      -0.00204248       0.00073174      -0.00625627
C        6.13851245       9.20863102       4.97689641       0.00059341      -0.00252791      -0.00772308
C        4.90562915       9.92044166       4.97690119      -0.00256288      -0.00069960      -0.00772539
C        4.90570935      11.34442332       4.99026632      -0.00236002      -0.00806041       0.00268346
C        3.67246959      12.05664994       4.99270506      -0.00146604       0.00295111      -0.00324036
C        3.67213511      13.48089715       5.00205712       0.00249526      -0.00608117      -0.00220549
C        2.43880669      14.19288658       4.99998512       0.00060987       0.00058595       0.00223583
C       13.53808508       0.66429595       5.01464235       0.00323111       0.00254231      -0.00065075
C       12.30473050       1.37645019       5.00998689       0.00054713      -0.00446241       0.00110583
C       12.30450814       2.80050575       5.00857374       0.00920198       0.00462824      -0.00594002
C       11.07130835       3.51260191       5.00008147      -0.00291486      -0.00381449      -0.00321954
C       11.07134790       4.93664401       4.99574558       0.00701705       0.00198669      -0.00100710
C        9.83822540       5.64876236       4.98796411      -0.00619662      -0.00719780      -0.00072634
C        9.83817587       7.07275334       4.98842554       0.00380292       0.00079113       0.00194221
C        8.60489512       7.78481792       4.98485611      -0.00239293      -0.00502214       0.00410451
C        8.60509000       9.20878131       4.99268013       0.00330490       0.00023371      -0.00327199
C        7.37166928       9.92069316       4.99025350      -0.00578652      -0.00606780       0.00269426
C        7.37204040      11.34479520       5.00204686      -0.00181443      -0.00538080      -0.00006479
C        6.13882720      12.05679758       5.00205281      -0.00380343      -0.00428192      -0.00009565
C        6.13860847      13.48075527       5.01148922       0.00279299       0.00235179       0.00179489
C        4.90538391      14.19293223       5.01051495      -0.00460793       0.00038258      -0.00108655
C       16.00477599       0.66405341       5.01864072       0.00185531       0.00277962       0.00936936
C       14.77147802       1.37626865       5.01794818      -0.00435391      -0.00435596      -0.00844890
C       14.77126384       2.80025120       5.01414399       0.00306450       0.00746468       0.00058621
C       13.53798356       3.51266132       5.01004686      -0.00152518      -0.01367775      -0.00038927
C       13.53812980       4.93657869       5.00364774      -0.00245489       0.00029259      -0.00751996
C       12.30483260       5.64866362       4.99817103      -0.00245052      -0.00811260       0.00332701
C       12.30495492       7.07254695       4.99562252       0.00464470       0.00240835      -0.00391142
C       11.07171388       7.78453707       4.99408920      -0.00363734       0.00079473       0.00418421
C       11.07194580       9.20851213       4.99993996       0.00024220       0.00075359       0.00220832
C        9.83868492       9.92061691       5.00203712      -0.00649821      -0.00085926      -0.00223146
C        9.83869669      11.34466310       5.01051281       0.00265878      -0.00375998      -0.00110326
C        8.60532628      12.05658736       5.01148794       0.00064740       0.00355121       0.00180311
C        8.60519948      13.48064720       5.01764449       0.00462516      -0.00189105      -0.00281124
C        7.37193879      14.19267765       5.01764119      -0.00399781       0.00300356      -0.00277062
C        4.92909985       8.53777717       9.16508903      -0.00710961      -0.01074927       0.01505072
O        4.91807884       8.51915948       7.99104131       0.00253536       0.00357023      -0.01356977
O        4.93905644       8.55480632      10.33817314       0.00379469       0.00573999       0.00908911
