48
Lattice="8.315575849598094 0.0 0.0 4.157787924799047 7.20149657514819 0.0 0.0 0.0 19.999999365264614" Properties=species:S:1:pos:R:3:forces:R:3 energy=-281406.7854415156 free_energy=-281406.7854415156 pbc="T T T"
C        7.16094068       2.85575751      15.52534559       0.00023886      -0.00062966      -0.01896266
O        7.17432959       2.83563548      14.34897434       0.00020003       0.00041986      -0.00829875
O        7.14725241       2.87608244      16.69700025       0.00016944      -0.00097985      -0.00428140
Pt       3.00284674       1.20025026       4.40499336      -0.00076979      -0.07865236      -0.50770571
Pt       5.77470508       1.20025026       4.40499336      -0.00163085      -0.08023153      -0.50690302
Pt       8.54656425       1.20025026       4.40499336      -0.00112897      -0.08013820      -0.50546320
Pt       4.38877633       3.60074995       4.40499336      -0.00186431      -0.07889456      -0.50575168
Pt       7.16063467       3.60074995       4.40499336      -0.00124621      -0.07885805      -0.50547297
Pt       9.93249301       3.60074995       4.40499336      -0.00045277      -0.07853640      -0.50396399
Pt       5.77470508       6.00124964       4.40499336      -0.00110506      -0.07542177      -0.50799985
Pt       8.54656425       6.00124964       4.40499336      -0.00087932      -0.07485458      -0.50787798
Pt      11.31842259       6.00124964       4.40499336      -0.00176969      -0.07708167      -0.50461525
Pt       1.61691716       2.00041655       6.66820622      -0.00077313       0.06200961       0.51050950
Pt       4.38877633       2.00041655       6.66820622      -0.00143956       0.06206077       0.50818857
Pt       7.16063467       2.00041655       6.66820622       0.00361574       0.05922253       0.50762884
Pt       3.00284674       4.40091624       6.66820622      -0.00147967       0.06167845       0.51558049
Pt       5.77470508       4.40091624       6.66820622      -0.00102947       0.06303034       0.51412139
Pt       8.54656425       4.40091624       6.66820622       0.00416699       0.06026717       0.51580366
Pt       4.38877633       6.80141676       6.66820622      -0.00105929       0.05975912       0.51472740
Pt       7.16063467       6.80141676       6.66820622      -0.00073148       0.06060424       0.51224603
Pt       9.93249301       6.80141676       6.66820622       0.00327661       0.05683912       0.51350818
Pt       1.61995234       0.67512414       9.02825812      -0.00595236       0.01326972       0.00774571
Pt       4.39086104       0.67515241       9.02827641       0.00121613       0.01042145       0.00900889
Pt       7.16315512       0.67512165       9.02809264       0.00163291       0.01257655       0.01017437
Pt       3.00543788       3.07674643       9.02874458      -0.00486273       0.00182266       0.00299868
Pt       5.77685965       3.07540596       9.02853004       0.00284801       0.00370933       0.00494526
Pt       8.54949549       3.07535274       9.02856081      -0.00117397       0.00293106       0.00274311
Pt       4.39161028       5.47705570       9.03006842      -0.00518077       0.00052271      -0.00773928
Pt       7.16318090       5.47581751       9.02950546      -0.00000694       0.00060241      -0.00047385
Pt       9.93476066       5.47703241       9.03004763       0.00226617      -0.00315397      -0.00784701
C        1.61938106       1.40389705      11.08752400      -0.00454391       0.01608122      -0.00366948
C        3.00528404       2.23104738      11.10196566       0.00092585       0.01254544      -0.00603798
C        3.00519589       3.80465452      11.08693027       0.00069086       0.00657483       0.00494346
C        4.39126518       4.63217905      11.10190994       0.00589091      -0.00107858      -0.00864328
C        4.39107060       6.20583609      11.08794643       0.00440739       0.00343037      -0.00046254
C        5.77733197       7.03286085      11.10272404      -0.00281947       0.00114028      -0.01141827
C        4.39100573       1.40389788      11.08756724       0.00618427       0.01600537      -0.00377412
C        5.77743592       2.23162531      11.10036325       0.00056076       0.01136479      -0.00622490
C        5.77737937       3.80388866      11.08638476       0.00009693       0.00747085       0.00857463
C        7.16308693       4.63144146      11.10088380       0.00092457      -0.00004757      -0.00391913
C        7.16299962       6.20503281      11.08751319       0.00067851       0.00203554       0.00474497
C        8.54885436       7.03285836      11.10278807       0.00425569       0.00089654      -0.01184507
C        7.16298465       1.40430950      11.08615692       0.00087186       0.01483295       0.00673449
C        8.54871882       2.23163862      11.10031252       0.00140022       0.01152368      -0.00670415
C        8.54858826       3.80388866      11.08637146       0.00172984       0.00722943       0.00828152
C        9.93489205       4.63218404      11.10185340      -0.00424669      -0.00121536      -0.00836200
C        9.93489870       6.20584274      11.08793728      -0.00289043       0.00317171      -0.00006968
C       11.32087319       7.03364086      11.10247374       0.00078779       0.00372373      -0.00872092
