48
Lattice="8.315575849598094 0.0 0.0 4.157787924799047 7.20149657514819 0.0 0.0 0.0 19.999999365264614" Properties=species:S:1:pos:R:3:forces:R:3 energy=-283178.6529682847 free_energy=-283178.6529682847 pbc="T T T"
Pt       3.00284680       1.20024997       5.74156598      -0.00081504       0.00169461      -1.24473635
Pt       5.77470538       1.20024997       5.74156598      -0.00050137      -0.00012547      -1.24538092
Pt       8.54656396       1.20024997       5.74156598       0.00203117       0.00074871      -1.24573985
Pt       4.38877609       3.60074992       5.74156598       0.00063121       0.00124159      -1.24701743
Pt       7.16063467       3.60074992       5.74156598      -0.00075770       0.00225769      -1.24863902
Pt       9.93249325       3.60074992       5.74156598       0.00055690       0.00064355      -1.24710382
Pt       5.77470538       6.00124987       5.74156598      -0.00015092      -0.00114028      -1.24424861
Pt       8.54656396       6.00124987       5.74156598       0.00086543       0.00004268      -1.24400461
Pt      11.31842254       6.00124987       5.74156598      -0.00014398      -0.00014604      -1.24452732
Pt       1.61691751       2.00041662       8.00477904      -0.00097573      -0.00310744       1.23939822
Pt       4.38877609       2.00041662       8.00477904       0.00424463      -0.00460716       1.25287800
Pt       7.16063467       2.00041662       8.00477904      -0.00112331      -0.00506456       1.26606982
Pt       3.00284680       4.40091657       8.00477904      -0.00051988      -0.00387234       1.25883345
Pt       5.77470538       4.40091657       8.00477904       0.00164242      -0.00511238       1.25134588
Pt       8.54656396       4.40091657       8.00477904       0.00066283      -0.00439427       1.26083814
Pt       4.38877609       6.80141652       8.00477904      -0.00050574      -0.00297477       1.24506416
Pt       7.16063467       6.80141652       8.00477904       0.00044172      -0.00569191       1.24303453
Pt       9.93249325       6.80141652       8.00477904       0.00175478      -0.00225049       1.23515307
Pt       1.61858648       2.00197493      10.63373900      -0.00055510      -0.00029671       0.00470460
Pt       4.38980952       2.00092403      10.63564323      -0.00451511       0.01304938       0.00202911
Pt       7.16256745       2.00156934      10.63811486       0.00062375       0.00907985       0.00267086
Pt       3.00392523       4.40196811      10.63681891      -0.00086646       0.01040294       0.00081864
Pt       5.77551379       4.40159191      10.63517374       0.00344888       0.00708776       0.00938658
Pt       8.54827140       4.40249956      10.63694100       0.00098062       0.00514272       0.00000720
Pt       4.39054970       6.80253502      10.63403821      -0.00050188       0.00645218       0.00298968
Pt       7.16151646       6.80291467      10.63361175       0.00284878       0.00384817      -0.00245283
Pt       9.93390545       6.80211921      10.63243918      -0.00305113       0.01230864       0.00648689
C        1.61886404       2.78168436      13.02028815      -0.00066026       0.00153598      -0.00943415
C        3.00398688       3.61098968      13.01774749      -0.00337637      -0.00520828      -0.00328253
C        3.00424445       5.18205753      13.02028452      -0.00073071      -0.00007173       0.00167045
C        4.39093248       6.01202161      13.02204382      -0.00262073      -0.00549419       0.00391965
C        4.39109692       7.58249998      13.02313592      -0.00148250       0.00068468      -0.00296371
C        5.77649035       8.41173459      13.02606594       0.00065126      -0.00847924      -0.01381891
C        4.38981123       2.78046098      13.01228170      -0.00212193       0.00318354      -0.00678617
C        5.77630700       3.61073383      13.00930211       0.00049288      -0.00126344      -0.01129023
C        5.77640362       5.18402280      13.01867162       0.00102690      -0.00112666      -0.00150795
C        7.16175029       6.01201925      13.02286044       0.00422124      -0.00639999       0.00229368
C        7.16143023       7.58317030      13.02454565       0.00292180      -0.00036253       0.00033887
C        8.54787876       8.41076228      13.02294514       0.00209005      -0.00704611      -0.00295137
C        7.16315916       2.77984247      13.00679502      -0.00260864       0.00058981      -0.00473520
C        8.54981431       3.61095691      13.01514027       0.00133003      -0.00390911      -0.00365508
C        8.54888729       5.18223572      13.02056629      -0.00201137      -0.00072505      -0.00065769
C        9.93432300       6.01073037      13.02529531       0.00167199      -0.00378286      -0.01075107
C        9.93402943       7.58170695      13.02310568       0.00024657      -0.00272048      -0.00634471
C       11.32030021       8.41047012      13.01917878       0.00233662      -0.00545794      -0.00092585
C        5.90643116       3.41696377      16.40643125       0.00882325      -0.00379006       0.00069600
O        7.04003477       3.09712644      16.40760086      -0.02273678       0.01249068      -0.00067749
O        4.77272519       3.73551533      16.39389979       0.00678591       0.00213556       0.00300562
