101
Lattice="17.265850017958673 -0.00010359510010775204 0.0 -8.633011338229426 14.952692293502695 0.0 -0.0 0.0 15.000000722551901" Properties=species:S:1:pos:R:3:forces:R:3 energy=-25938.509879634068 free_energy=-25938.509879634068 pbc="T T T"
C        1.20767986       0.66575993       5.01830118      -0.00022960       0.00073868      -0.00807481
C       -0.02550714       1.37781441       5.01887229      -0.00213479       0.00207205      -0.00769711
C       -0.02554362       2.80202359       5.00848953      -0.00044249      -0.00118605      -0.00208645
C       -1.25886868       3.51401725       5.00632406      -0.00213479      -0.00100247       0.00058107
C       -1.25928586       4.93813382       4.99787517       0.00347896       0.00064020       0.00045611
C       -2.49261459       5.65013148       4.99846262      -0.00189362      -0.00179643       0.00180234
C       -2.49304136       7.07421734       4.99643265       0.00426572      -0.00194118      -0.00407006
C       -3.72643252       7.78605307       4.99853209      -0.00070217       0.00109812      -0.00350056
C       -3.72665443       9.21011981       4.99825101       0.00374430       0.00124596      -0.00166839
C       -4.95994349       9.92205574       5.00065054       0.00248908      -0.00234433      -0.00079601
C       -4.95974888      11.34608745       5.00407257       0.00184657       0.00249217       0.00365688
C       -6.19294636      12.05806170       5.01086460       0.00178692      -0.00121330      -0.00199003
C       -6.19255639      13.48214078       5.01585164       0.00172110       0.00336532      -0.00899552
C       -7.42564085      14.19425050       5.02116282      -0.00221012      -0.00055227      -0.00209725
C        3.67404099       0.66582866       5.00216899       0.00031702      -0.00024348       0.00175863
C        2.44090162       1.37803842       5.00611046      -0.00228854      -0.00086003      -0.00043143
C        2.44093172       2.80223116       4.99368747      -0.00002160      -0.00285238       0.00351598
C        1.20760374       3.51425891       4.99540330      -0.00268860      -0.00112820       0.00248651
C        1.20732463       4.93840099       4.98340079       0.00161157      -0.00176378       0.00235102
C       -0.02612774       5.65034149       4.98798580       0.00090991      -0.00207488       0.00026020
C       -0.02635210       7.07445990       4.98334576       0.00175272      -0.00420324      -0.00085566
C       -1.25978948       7.78633284       4.99041874       0.00029722      -0.00008870      -0.00203631
C       -1.26005711       9.21037725       4.98992210       0.00351830       0.00053787      -0.00106187
C       -2.49338628       9.92229234       4.99469239       0.00317814      -0.00199183       0.00301770
C       -2.49313812      11.34632387       4.99545731      -0.00152466       0.00026200       0.00411068
C       -3.72642232      12.05824065       5.00089715       0.00265518       0.00050394       0.00188719
C       -3.72600539      13.48233131       5.00168191      -0.00235462       0.00053248       0.00225820
C       -4.95924120      14.19438649       5.00825702       0.00081427      -0.00143390      -0.00367436
C        6.14060447       0.66576782       4.99168118      -0.00019463      -0.00196355       0.00539803
C        4.90738336       1.37781810       4.99069145      -0.00343319       0.00328227       0.00368465
C        4.90736757       2.80198042       4.98012415      -0.00145344      -0.00139997       0.00165348
C        3.67418960       3.51431614       4.97901112      -0.00422329       0.00026277       0.00250888
C        3.67404398       4.93849054       4.96458349       0.00105184       0.00015170      -0.00363888
C        2.44058377       5.65042190       4.96794192      -0.00021392      -0.00208208       0.00083484
C        2.44055468       7.07446326       4.96035424       0.00200777      -0.00278116       0.00331107
C        1.20701707       7.78635874       4.97240617       0.00004577      -0.00226309       0.00070937
C        1.20659349       9.21037040       4.97586700       0.00450740       0.00063121       0.00138994
C       -0.02672919       9.92245835       4.98558125       0.00303904      -0.00437756      -0.00325759
C       -0.02649942      11.34644836       4.99043268       0.00103975      -0.00188230      -0.00226746
C       -1.25979112      12.05836786       4.99392569       0.00296911       0.00044917       0.00464907
C       -1.25938555      13.48240799       4.99616085       0.00000746      -0.00111843      -0.00099707
C       -2.49263576      14.19439739       4.99647040      -0.00057310      -0.00012753       0.00285932
C        8.60725612       0.66563109       4.99624184       0.00168022      -0.00079164      -0.00548339
C        7.37400105       1.37768630       4.98959047      -0.00437447       0.00307890      -0.00192498
C        7.37384938       2.80180223       4.98091369       0.00066874      -0.00142619       0.00130406
C        6.14056160       3.51409646       4.97343141      -0.00388057      -0.00005708       0.00050034
C        6.13992084       4.93823402       4.96155759      -0.00112897       0.00026688      -0.00615316
C        4.90690035       5.65065263       4.95067149       0.00095902       0.00201497      -0.01265420
C        4.90663911       7.07402968       4.93874494       0.00062992      -0.00111534      -0.00221141
C        3.67392970       7.78589275       4.94797388       0.00271174      -0.00375535       0.00554587
C        3.67340471       9.20971965       4.96244764       0.00131075      -0.00002957       0.00306321
C        2.44015727       9.92206683       4.97418968       0.00108809      -0.00298299       0.00310255
C        2.44024950      11.34607354       4.98677353       0.00148121       0.00068854       0.00101121
C        1.20703088      12.05823135       4.99246318      -0.00055073      -0.00182163      -0.00329744
C        1.20737911      13.48220416       4.99853130      -0.00100247       0.00170104      -0.00163908
C       -0.02585855      14.19428690       4.99816724      -0.00429169      -0.00063866      -0.00644833
C       11.07408700       0.66544319       5.00362919      -0.00518797       0.00046486      -0.00294546
C        9.84072659       1.37743635       4.99781447      -0.00216770       0.00304959      -0.00643753
C        9.84063215       2.80149566       4.99086928      -0.00307555       0.00009025       0.00120045
C        8.60723835       3.51355473       4.98084972      -0.00167842       0.00263281       0.00513295
C        8.60678912       4.93765708       4.97463072      -0.00321234       0.00055896       0.00495529
C        7.37325374       5.64980229       4.96396601       0.00247983       0.00136217       0.00121253
C        7.37265037       7.07384679       4.96130265      -0.00217284      -0.00138120       0.00183962
C        6.13929422       7.78552909       4.94996312       0.00141693      -0.00089989      -0.00011081
C        6.13962653       9.20928904       4.96785468       0.00015889       0.00057310       0.00157943
C        4.90657611       9.92173324       4.97292078       0.00213376      -0.00167970       0.00162005
C        4.90682573      11.34574687       4.99193422      -0.00121099      -0.00124750      -0.00330695
C        3.67367106      12.05795171       4.99429826       0.00054996       0.00156143       0.00109169
C        3.67405485      13.48202286       5.00358789      -0.00399138      -0.00118554       0.00266418
C        2.44080669      14.19411459       5.00252380       0.00031573      -0.00058338       0.00211268
C       13.54069612       0.66537790       5.01325239      -0.00534147       0.00061141      -0.00036741
C       12.30739020       1.37739969       5.00671058      -0.00000566       0.00244101       0.00229934
C       12.30729883       2.80148639       5.00237063      -0.00241735       0.00138917       0.00010567
C       11.07390288       3.51345197       4.99392231      -0.00054456       0.00007868       0.00185994
C       11.07351870       4.93747822       4.99054102      -0.00047385       0.00414488       0.00332187
C        9.84009279       5.64950467       4.98207900      -0.00138840       0.00105621       0.00092817
C        9.83953578       7.07358520       4.98402908       0.00166093      -0.00043940      -0.00156580
C        8.60604930       7.78551091       4.97608585       0.00183705       0.00216744       0.00340260
C        8.60612441       9.20955058       4.98589767       0.00331107       0.00287732       0.00033373
C        7.37281863       9.92147804       4.98608735       0.00032936      -0.00041883      -0.00106392
C        7.37308791      11.34555428       5.00348138       0.00643907      -0.00017586      -0.00624855
C        6.14012191      12.05770762       5.00562119      -0.00307915       0.00388314      -0.00964626
C        6.14044670      13.48183279       5.01507862       0.00198643      -0.00042372      -0.00057284
C        4.90738675      14.19396979       5.01155578      -0.00126293       0.00217850       0.00415233
C       16.00714804       0.66545802       5.02171452      -0.00329358      -0.00136294      -0.00000951
C       14.77391529       1.37747461       5.01688859      -0.00100504       0.00395436      -0.00472954
C       14.77387087       2.80167896       5.01044472      -0.00501828      -0.00048028       0.00137297
C       13.54046596       3.51370674       5.00410504       0.00011441      -0.00269580       0.00436599
C       13.54011934       4.93780155       5.00005118      -0.00141873       0.00006942       0.00209725
C       12.30666733       5.64968975       4.99643108      -0.00117911       0.00046203      -0.00274440
C       12.30617780       7.07382902       4.99742935       0.00258062      -0.00340157      -0.00699726
C       11.07273066       7.78565044       4.99372077       0.00314703       0.00213016      -0.00371910
C       11.07270306       9.20972741       4.99742114       0.00049957       0.00193527       0.00170078
C        9.83940495       9.92168894       4.99724456       0.00150410      -0.00115031       0.00318457
C        9.83961220      11.34574379       5.00765517       0.00278553       0.00068931       0.00411068
C        8.60646401      12.05766651       5.01269290      -0.00103178       0.00270017       0.00042475
C        8.60689056      13.48182858       5.02121931       0.00123259       0.00149561      -0.00130098
C        7.37379157      14.19390274       5.02175035      -0.00168304       0.00452900      -0.00061115
C        5.02207946       7.10325673       9.19074889       0.00370702      -0.00318637      -0.01781929
O        5.00158662       7.08070800       8.01655729      -0.00109915       0.00089474       0.01838596
O        5.04299426       7.12538112      10.36333822      -0.00088832       0.00200623       0.02408070
