179
Lattice="10.720992125991367 0.0 0.0 -5.360496062995684 9.284647205911675 0.0 0.0 0.0 34.99999747733031" Properties=species:S:1:pos:R:3:forces:R:3 energy=-74887.84512450924 free_energy=-74887.84512450924 pbc="T T T"
Si       1.78683208      -0.00000002       5.05623624       0.00020312       0.00023063      -0.05895128
Si       0.89341603       1.54744198      12.64850174       0.00172650       0.00326196       0.05738162
Si       0.89341603       1.54744198       2.52836107       0.00009924       0.00011004       0.14598724
Si       1.78683208      -0.00000002      10.12062657      -0.00213967      -0.00447552      -0.07437430
Si      -0.01607126      -0.02722463      15.19235400      -0.00115237      -0.00258576       0.01396752
Si       0.00000000       0.00000000       7.58805938      -0.00024863      -0.00044069      -0.09356219
C        0.00000000       0.00000000       5.68435955       0.00006916       0.00012496       0.08967674
C        0.00000000       0.00000000      13.27662505      -0.01491960      -0.02490036       0.18135970
C        1.78683208      -0.00000002       3.15844319       0.00115108      -0.00004834       0.09070055
C        0.89341603       1.54744198      10.75070869      -0.00118194      -0.00096314       0.03049920
C        0.89341603       1.54744198       0.63055283       0.00136011       0.00210856      -0.46566921
C        1.78683208      -0.00000002       8.22281833       0.00179772       0.00134083       0.10812440
Si       1.78683208       3.09488391       5.05623624      -0.00008716      -0.00018101      -0.05895514
Si       3.57366413       0.00000002      12.64850174       0.00209056       0.00346045       0.05038282
Si       3.57366413       0.00000002       2.52836107       0.00012393       0.00006299       0.14613019
Si       1.78683208       3.09488391      10.12062657       0.00189876       0.00453928      -0.07180603
Si       0.01380879       3.12139915      15.19241840       0.00164062       0.00337046       0.01264211
Si       0.00000000       3.09488393       7.58805938       0.00024683       0.00054507      -0.09440731
C        0.00000000       3.09488393       5.68435955       0.00006196       0.00146656       0.08920751
C        0.00000000       3.09488393      13.27662505       0.01216929       0.02619723       0.18141935
C        1.78683208       3.09488391       3.15844319       0.00065615       0.00104181       0.09043778
C        3.57366413       0.00000002      10.75070869       0.00033116      -0.00293620       0.02909769
C        3.57366413       0.00000002       0.63055283       0.00252714       0.00019746      -0.46573605
C        1.78683208       3.09488391       8.22281833       0.00005425      -0.00029979       0.10723711
Si      -0.89341603       1.54744195       5.05623624       0.00008510       0.00029645      -0.05897416
Si      -1.78683208       3.09488395      12.64850174       0.00228494       0.00365971       0.05150408
Si      -1.78683208       3.09488395       2.52836107      -0.00004345       0.00011133       0.14615230
Si      -0.89341603       1.54744195      10.12062657      -0.00176069      -0.00344836      -0.07437122
Si       2.69725475       1.57202490      15.19290164       0.00143056       0.00320025       0.01020754
Si       2.68024811       1.54744196       7.58805938       0.00039852       0.00052116      -0.09448007
C        2.68024811       1.54744196       5.68435955       0.00120533       0.00070654       0.08905659
C        2.68024811       1.54744196      13.27662505       0.01739531       0.02303220       0.19094195
C       -0.89341603       1.54744195       3.15844319      -0.00063558       0.00090426       0.09067278
C       -1.78683208       3.09488395      10.75070869      -0.00152749      -0.00018126       0.02940365
C       -1.78683208       3.09488395       0.63055283      -0.00121819       0.00217207      -0.46554091
C       -0.89341603       1.54744195       8.22281833      -0.00003728       0.00202757       0.10826967
C        0.04257254       0.07734181      18.91466920      -0.00001543      -0.00011981       0.01357131
C        1.38296239       0.85103036      18.91642064      -0.00025017      -0.00047283       0.01053458
C       -1.29779857       2.39865330      18.91600278       0.00013087      -0.00036021       0.01073513
C        0.04236600       3.17269132      18.91582191      -0.00017432      -0.00045303       0.00472954
C        2.72295458       0.07754143      18.91568637      -0.00042063      -0.00032473       0.01364176
C        4.06295294       0.85132995      18.91587723      -0.00023037      -0.00037230       0.00799253
C        1.38270019       2.39821958      18.91662072      -0.00033656      -0.00037410      -0.00036175
C        2.72297808       3.17129809      18.91492381      -0.00046923      -0.00022883      -0.01272208
Si      -0.89341603       4.64232588       5.05623624      -0.00015324      -0.00017484      -0.05895617
Si      -1.78683208       6.18976788      12.64850174      -0.00121228      -0.00225126      -0.02633915
Si      -1.78683208       6.18976788       2.52836107       0.00009719      -0.00000874       0.14583169
Si      -0.89341603       4.64232588      10.12062657       0.00172135       0.00316297      -0.07166307
Si      -2.66452715       4.66810439      15.19216719       0.00204814       0.00206125       0.01454576
Si      -2.68024811       4.64232589       7.58805938       0.00025377       0.00041549      -0.09442248
C       -2.68024811       4.64232589       5.68435955       0.00005554       0.00007816       0.08909747
C       -2.68024811       4.64232589      13.27662505       0.01454730       0.02414652       0.17879811
C       -0.89341603       4.64232588       3.15844319       0.00004551       0.00068186       0.09044498
C       -1.78683208       6.18976788      10.75070869       0.00032756       0.00083921       0.01099841
C       -1.78683208       6.18976788       0.63055283       0.00145833      -0.00062452      -0.46575611
C       -0.89341603       4.64232588       8.22281833      -0.00048517      -0.00016172       0.10728236
Si      -0.89341603       7.73720981       5.05623624       0.00019489       0.00020826      -0.05900270
Si       0.89341603       4.64232591      12.64850174      -0.00114748      -0.00244306      -0.02455661
Si       0.89341603       4.64232591       2.52836107      -0.00007071       0.00007713       0.14601089
Si      -0.89341603       7.73720981      10.12062657      -0.00270223      -0.00303159      -0.07435193
Si      -2.69461518       7.71132869      15.19221956      -0.00179540      -0.00237750       0.01504507
Si      -2.68024811       7.73720982       7.58805938      -0.00017432      -0.00048542      -0.09352182
C       -2.68024811       7.73720982       5.68435955       0.00121176      -0.00051628       0.08969139
C       -2.68024811       7.73720982      13.27662505      -0.01147535      -0.02460854       0.17955427
C       -0.89341603       7.73720981       3.15844319       0.00060704      -0.00037178       0.09047044
C        0.89341603       4.64232591      10.75070869       0.00098885       0.00128607       0.01124678
C        0.89341603       4.64232591       0.63055283      -0.00001311       0.00171338      -0.46593840
C       -0.89341603       7.73720981       8.22281833       0.00138582       0.00050265       0.10817197
Si      -3.57366413       6.18976784       5.05623624      -0.00011030      -0.00029388      -0.05897648
Si      -4.46708018       7.73720984      12.64850174      -0.00158406      -0.00247674      -0.02638183
Si      -4.46708018       7.73720984       2.52836107       0.00004808      -0.00009230       0.14603789
Si      -3.57366413       6.18976784      10.12062657       0.00303262       0.00385331      -0.07178494
Si      -0.01563945       6.16389458      15.19284130      -0.00077699      -0.00337252       0.01187901
Si       0.00000000       6.18976786       7.58805938      -0.00026405      -0.00038978      -0.09368946
C        0.00000000       6.18976786       5.68435955       0.00004397       0.00011364       0.08960269
C        0.00000000       6.18976786      13.27662505      -0.01516797      -0.02333636       0.19129470
C       -3.57366413       6.18976784       3.15844319       0.00053376      -0.00101713       0.09060953
C       -4.46708018       7.73720984      10.75070869       0.00190673       0.00121330       0.01079478
C       -4.46708018       7.73720984       0.63055283       0.00133183      -0.00210496      -0.46561496
C       -3.57366413       6.18976784       8.22281833      -0.00027099      -0.00216564       0.10729059
C       -2.63741328       4.71956110      18.91458064      -0.00002340      -0.00055819       0.01462469
C       -1.29700141       5.49345039      18.91526185      -0.00018949      -0.00050548       0.01434676
C       -3.97805738       7.04040596      18.91477989       0.00036664       0.00005219       0.01444780
C       -2.63739180       7.81444849      18.91379283      -0.00014604      -0.00014372       0.01779820
C        0.04263112       4.71996068      18.91592200      -0.00042063      -0.00036227       0.00519646
C        1.38189696       5.49371526      18.91579012      -0.00047231      -0.00012958      -0.00085078
C       -1.29697610       7.04051873      18.91476451      -0.00027768      -0.00037024       0.01689035
C        0.04271376       7.81397016      18.91541338      -0.00055073      -0.00047617       0.01224282
Si       7.14732829      -0.00000002       5.05623624      -0.00021263      -0.00024400      -0.05896671
Si       6.25391224       1.54744198      12.64850174      -0.00235230      -0.00162442      -0.02698090
Si       6.25391224       1.54744198       2.52836107       0.00000514       0.00001028       0.14587565
Si       7.14732829      -0.00000002      10.12062657       0.00167996       0.00345016      -0.07187185
Si       5.37336107       0.02737320      15.19217888       0.00176558       0.00286652       0.01401200
Si       5.36049621       0.00000000       7.58805938       0.00017946       0.00045843      -0.09439342
C        5.36049621       0.00000000       5.68435955       0.00011493       0.00005065       0.08904939
C        5.36049621       0.00000000      13.27662505       0.01205385       0.02522175       0.17860117
C        7.14732829      -0.00000002       3.15844319      -0.00118502       0.00005785       0.09048201
C        6.25391224       1.54744198      10.75070869      -0.00044223       0.00114286       0.01087679
C        6.25391224       1.54744198       0.63055283      -0.00114877       0.00081967      -0.46565018
C        7.14732829      -0.00000002       8.22281833      -0.00172290      -0.00097136       0.10724406
Si       7.14732829       3.09488391       5.05623624       0.00008742       0.00027845      -0.05898548
Si       8.93416034       0.00000002      12.64850174      -0.00081247      -0.00251634      -0.02565832
Si       8.93416034       0.00000002       2.52836107      -0.00013087       0.00004037       0.14601141
Si       7.14732829       3.09488391      10.12062657      -0.00229137      -0.00335709      -0.07433239
Si       5.34616122       3.06637123      15.19247133      -0.00230577      -0.00179129       0.01316251
Si       5.36049621       3.09488393       7.58805938      -0.00022163      -0.00049468      -0.09362184
C        5.36049621       3.09488393       5.68435955       0.00002185       0.00012213       0.08968676
C        5.36049621       3.09488393      13.27662505      -0.01229990      -0.02679192       0.18268948
C        7.14732829       3.09488391       3.15844319      -0.00062246       0.00027074       0.09048381
C        8.93416034       0.00000002      10.75070869      -0.00020363       0.00060215       0.01115036
C        8.93416034       0.00000002       0.63055283      -0.00255670       0.00004834      -0.46556405
C        7.14732829       3.09488391       8.22281833       0.00002211       0.00131383       0.10815063
Si       4.46708018       1.54744195       5.05623624      -0.00009847      -0.00019849      -0.05896954
Si       3.57366413       3.09488395      12.64850174      -0.00110763      -0.00273205      -0.02261594
Si       3.57366413       3.09488395       2.52836107       0.00001800      -0.00003240       0.14607028
Si       4.46708018       1.54744195      10.12062657       0.00294134       0.00353655      -0.07156511
Si       8.02611075       1.52298258      15.19266569      -0.00161491      -0.00230474       0.01357697
Si       8.04074432       1.54744196       7.58805938      -0.00031419      -0.00033167      -0.09360564
C        8.04074432       1.54744196       5.68435955      -0.00117782       0.00077287       0.08955564
C        8.04074432       1.54744196      13.27662505      -0.01494814      -0.02207961       0.18945122
C        4.46708018       1.54744195       3.15844319       0.00053248       0.00043657       0.09046504
C        3.57366413       3.09488395      10.75070869       0.00172470       0.00261378       0.01153525
C        3.57366413       3.09488395       0.63055283       0.00129455       0.00083175      -0.46582039
C        4.46708018       1.54744195       8.22281833      -0.00026894      -0.00064689       0.10733996
C        5.40337405       0.07726729      18.91443149      -0.00022677      -0.00049802       0.01397497
C        6.74345229       0.85129823      18.91444194       0.00002674      -0.00053865       0.01751718
C        4.06322538       2.39787613      18.91543037      -0.00023397      -0.00045200      -0.00560192
C        5.40332133       3.17207071      18.91522748      -0.00010696      -0.00040752       0.00578215
C        8.08356863       0.07762203      18.91410916      -0.00000257      -0.00023577       0.01882305
C        9.42327251       0.85131305      18.91491305       0.00012187      -0.00015607       0.01547444
C        6.74352851       2.39840028      18.91530650      -0.00004834      -0.00059830       0.01467046
C        8.08356360       3.17188709      18.91561928      -0.00002365      -0.00058801       0.01307097
Si       4.46708018       4.64232588       5.05623624       0.00013678       0.00017458      -0.05897031
Si       3.57366413       6.18976788      12.64850174       0.00156323       0.00281227       0.05325243
Si       3.57366413       6.18976788       2.52836107      -0.00001980      -0.00006042       0.14617750
Si       4.46708018       4.64232588      10.12062657      -0.00252020      -0.00429246      -0.07451031
Si       2.66422664       4.61715765      15.19277619      -0.00096622      -0.00269760       0.01112388
Si       2.68024811       4.64232589       7.58805938      -0.00024683      -0.00039389      -0.09360487
C        2.68024811       4.64232589       5.68435955       0.00006556       0.00007919       0.08981480
C        2.68024811       4.64232589      13.27662505      -0.01500933      -0.02277175       0.18654330
C        4.46708018       4.64232588       3.15844319      -0.00002545      -0.00066334       0.09038739
C        3.57366413       6.18976788      10.75070869      -0.00242558      -0.00316014       0.02952449
C        3.57366413       6.18976788       0.63055283      -0.00119968      -0.00220781      -0.46586127
C        4.46708018       4.64232588       8.22281833       0.00076953       0.00061475       0.10823624
Si       4.46708018       7.73720981       5.05623624      -0.00017124      -0.00030082      -0.05895540
Si       6.25391224       4.64232591      12.64850174       0.00213710       0.00249526       0.05670439
Si       6.25391224       4.64232591       2.52836107      -0.00000231       0.00000874       0.14627057
Si       4.46708018       7.73720981      10.12062657       0.00190416       0.00430326      -0.07162991
Si       2.69706737       7.76243728      15.19215682       0.00149458       0.00231348       0.01532635
Si       2.68024811       7.73720982       7.58805938       0.00020672       0.00040469      -0.09443559
C        2.68024811       7.73720982       5.68435955      -0.00108809      -0.00059135       0.08918848
C        2.68024811       7.73720982      13.27662505       0.01432464       0.02347520       0.17939538
C        4.46708018       7.73720981       3.15844319      -0.00056667      -0.00104541       0.09062136
C        6.25391224       4.64232591      10.75070869      -0.00110146      -0.00335889       0.03048968
C        6.25391224       4.64232591       0.63055283      -0.00002545      -0.00133569      -0.46596463
C        4.46708018       7.73720981       8.22281833      -0.00114517      -0.00224663       0.10731733
Si       1.78683208       6.18976784       5.05623624       0.00006659       0.00021983      -0.05899345
Si       0.89341603       7.73720984      12.64850174       0.00116342       0.00324653       0.05641617
Si       0.89341603       7.73720984       2.52836107      -0.00004499      -0.00002340       0.14612016
Si       1.78683208       6.18976784      10.12062657      -0.00153572      -0.00376898      -0.07439513
Si       5.37544654       6.21768997      15.19271159       0.00058698       0.00193913       0.01244748
Si       5.36049621       6.18976786       7.58805938       0.00030262       0.00043889      -0.09447493
C        5.36049621       6.18976786       5.68435955       0.00000154      -0.00130406       0.08900696
C        5.36049621       6.18976786      13.27662505       0.01461312       0.02507597       0.18944762
C        1.78683208       6.18976784       3.15844319      -0.00057438      -0.00037178       0.09040976
C        0.89341603       7.73720984      10.75070869      -0.00096905      -0.00161054       0.03071980
C        0.89341603       7.73720984       0.63055283      -0.00127398      -0.00064638      -0.46588441
C        1.78683208       6.18976784       8.22281833      -0.00011544       0.00074639       0.10818097
C        2.72273547       4.72003311      18.91467511      -0.00031213       0.00013370      -0.00791437
C        4.06351847       5.49333251      18.91670322       0.00017792       0.00043375       0.00484499
C        1.38214087       7.04039199      18.91590510      -0.00058724      -0.00037050       0.00819925
C        2.72286441       7.81443935      18.91429351      -0.00017843      -0.00008716       0.01541351
C        5.40331194       4.71944613      18.91651169       0.00013755       0.00013421       0.00926137
C        6.74296429       5.49320962      18.91545260       0.00024014      -0.00011133       0.01447660
C        4.06337991       7.04055669      18.91581339       0.00011878       0.00040803       0.01304835
C        5.40321699       7.81402209      18.91515526       0.00017998       0.00028359       0.01324144
C        2.62408518       3.80022296      22.29911838       0.00594670      -0.00402352       0.00063558
O        1.49509359       4.13459306      22.27410984       0.01602877      -0.00652520       0.00169359
O        3.75317647       3.46540395      22.30798454      -0.02098200       0.01179494       0.00088497
