101
Lattice="17.265850017958673 -0.00010359510010775204 0.0 -8.633011338229426 14.952692293502695 0.0 -0.0 0.0 15.000000722551901" Properties=species:S:1:pos:R:3:forces:R:3 energy=-26794.520765297217 free_energy=-26794.520765297217 pbc="T T T"
C        1.20523532       0.66372512       5.01593151       0.00027562      -0.00362860      -0.00960127
C       -0.02794233       1.37569946       5.01583026      -0.00378775      -0.00144676      -0.00977122
C       -0.02827626       2.79948834       5.00807131       0.00043786       0.00198232      -0.00347922
C       -1.26131588       3.51175875       4.99885612      -0.00486453      -0.00244563       0.00971543
C       -1.26182306       4.93567781       4.99792923       0.00458016      -0.00007559       0.00427909
C       -2.49480139       5.64798553       4.99582081       0.00230268      -0.00532450       0.00232145
C       -2.49470780       7.07172622       5.00040470      -0.00302465       0.00109246      -0.00059804
C       -3.72771722       7.78361376       5.00343958      -0.00612283       0.00220858      -0.00565668
C       -3.72818294       9.20764173       5.00247873       0.00527513       0.00411197      -0.00316220
C       -4.96113960       9.92005616       5.00539326      -0.00003188      -0.00465113      -0.00394022
C       -4.96102353      11.34393922       4.99956931      -0.00231219       0.00003934       0.00682885
C       -6.19394478      12.05592052       5.00712226      -0.00910633       0.00291383       0.00874098
C       -6.19437228      13.48006589       5.00616378       0.00011750      -0.00039055       0.00090014
C       -7.42738204      14.19254483       5.01848596      -0.00614314      -0.00567545      -0.00736055
C        3.67173913       0.66365133       4.99921917       0.00064509      -0.00533890       0.00877029
C        2.43840397       1.37535646       5.00827481       0.00159254       0.00152621      -0.00319871
C        2.43834354       2.79923722       5.00944386      -0.00215690       0.00518360      -0.00416904
C        1.20486561       3.51134949       5.00936338       0.00530033       0.00073251      -0.00441587
C        1.20476663       4.93526618       5.00783476       0.00060164       0.00302722       0.00336429
C       -0.02848693       5.64750356       5.00358410       0.00317480       0.00189053       0.00163291
C       -0.02865344       7.07166989       5.00436075       0.00486658       0.00085206       0.00065383
C       -1.26184720       7.78369343       5.00204247       0.00556901       0.00137837      -0.00186405
C       -1.26154077       9.20763211       5.00035073      -0.00109298       0.00405823       0.00210162
C       -2.49480078       9.91986354       4.99752721      -0.00091506       0.00144522       0.00551784
C       -2.49504879      11.34417456       4.99231574       0.00776422      -0.00561683       0.01109637
C       -3.72814739      12.05594476       4.99108485       0.00239241       0.00208028       0.00920686
C       -3.72783939      13.47997492       4.98864342      -0.00357872       0.00210342       0.02148054
C       -4.96106940      14.19222341       4.99509853      -0.00269246      -0.00116291       0.01540322
C        6.13842350       0.66359663       4.99621301      -0.00462387      -0.00096776       0.00170361
C        4.90509782       1.37525200       4.99826798      -0.00157711       0.00361163       0.00361831
C        4.90495155       2.79928398       5.00357195      -0.00003317       0.00287861       0.00219135
C        3.67153083       3.51113549       5.00775793       0.00292232       0.00232633       0.00318148
C        3.67151938       4.93506304       5.01014745       0.00240989       0.00628300      -0.00762589
C        2.43799513       5.64712544       5.01053885       0.00445932       0.00604981      -0.00712118
C        2.43784660       7.07126392       5.00890237       0.00390808       0.00468892      -0.01051427
C        1.20470673       7.78343778       5.00670555       0.00122487       0.00707516      -0.00181057
C        1.20470426       9.20776401       5.00468936       0.00679440       0.00107344       0.00284750
C       -0.02861673       9.92005692       5.00186314       0.00601381      -0.00329513       0.00128427
C       -0.02845304      11.34405715       5.00116064       0.00264721      -0.00192036       0.00262767
C       -1.26162268      12.05585612       4.99479520      -0.00143982       0.00286524       0.01116630
C       -1.26179191      13.48011850       4.99625628       0.00394716      -0.00043323       0.00055613
C       -2.49493720      14.19246744       4.99130257       0.00409885      -0.00882480       0.01255701
C        8.60439989       0.66373863       5.00411459       0.00537361      -0.00523657      -0.00638533
C        7.37136471       1.37564726       5.00098478       0.00359620      -0.00356432      -0.00115700
C        7.37153661       2.79935709       5.00235487      -0.00106701       0.00395153      -0.00169796
C        6.13834782       3.51131229       5.00415343      -0.00177946       0.00424335       0.00106289
C        6.13810154       4.93527116       5.00568491       0.00509207       0.00386848      -0.00181648
C        4.90487660       5.64704468       5.00732890       0.00246980       0.00489358      -0.01017051
C        4.90501629       7.07115060       5.00149514       0.00217824       0.00430788       0.00228880
C        3.67141419       7.78353288       5.00331810       0.00149535       0.00519106       0.00174115
C        3.67108403       9.20783700       5.00118371       0.00310229       0.00483162       0.00482108
C        2.43816507       9.91999284       5.00521243      -0.00166993      -0.00037024       0.00152441
C        2.43779900      11.34408886       5.01030152       0.00700754      -0.00384586      -0.00155397
C        1.20456758      12.05596807       5.00810267       0.00844350      -0.00053942      -0.00314472
C        1.20471112      13.47989851       5.01000675       0.00261147       0.00394896      -0.00802364
C       -0.02835820      14.19232049       5.00461332       0.00027254      -0.00358849      -0.00855252
C       11.07139487       0.66375225       5.00592005      -0.00393404      -0.00402815      -0.00429091
C        9.83791766       1.37538174       5.00327822       0.00100864       0.00484807      -0.00378209
C        9.83801073       2.79967357       4.99827181       0.00137683      -0.00211679       0.00489692
C        8.60456211       3.51158109       5.00067176       0.00417984      -0.00077390       0.00202886
C        8.60506594       4.93550242       5.00154127      -0.00659179       0.00235384       0.00173061
C        7.37155949       5.64736922       5.00351932      -0.00370470       0.00503859       0.00379186
C        7.37164975       7.07151883       5.00337775      -0.00069445      -0.00202192       0.00248060
C        6.13840641       7.78297389       4.99937770       0.00190699       0.00607063       0.00504193
C        6.13840406       9.20752743       5.00648926      -0.00549548       0.00068828      -0.00104438
C        4.90443766       9.92017076       5.00590975       0.00184400      -0.00341931      -0.00065615
C        4.90495158      11.34445926       5.01626449      -0.00692218      -0.00476605      -0.00072145
C        3.67124880      12.05589179       5.01601470       0.00297502       0.00252148      -0.00292823
C        3.67135460      13.48024407       5.01698069       0.00197435      -0.00106752      -0.00538132
C        2.43778870      14.19240268       5.01258583       0.00748885      -0.00578524      -0.00882223
C       13.53753307       0.66395047       5.00704772       0.00624495      -0.00737238       0.00829078
C       12.30447634       1.37580580       4.99994920       0.00065100      -0.00367076       0.00644987
C       12.30460594       2.79953870       4.99157527       0.00025377       0.00097573       0.00899423
C       11.07163711       3.51157389       4.99293459      -0.00877800       0.00180029       0.01067188
C       11.07122327       4.93555646       4.99506743       0.00334398      -0.00150204       0.01097115
C        9.83821691       5.64757264       5.00102925      -0.00351187      -0.00030185       0.00283773
C        9.83827771       7.07127102       5.00782905      -0.00520957       0.00624367      -0.00387954
C        8.60513303       7.78323641       5.00960113      -0.00816042       0.00367462      -0.00214404
C        8.60500013       9.20737634       5.01624399      -0.00056153       0.00407263      -0.00296551
C        7.37202091       9.92021094       5.01717423      -0.00277139      -0.00770714       0.00044917
C        7.37172644      11.34432193       5.02563641      -0.00242224      -0.00367873      -0.00307247
C        6.13833400      12.05630879       5.02519205      -0.00386463      -0.00292772      -0.00397724
C        6.13816202      13.48037623       5.02696733       0.00012830      -0.00002931      -0.01351475
C        4.90489999      14.19261373       5.01793479      -0.00335683      -0.00704199      -0.00056693
C       16.00462963       0.66400598       5.01828442      -0.00294571      -0.00844813      -0.00725642
C       14.77109163       1.37564427       5.00601215      -0.00105158      -0.00055973       0.00043066
C       14.77112585       2.79982565       4.99491911      -0.00005245      -0.00416364       0.01587733
C       13.53767738       3.51177234       4.98877919       0.00382477      -0.00330361       0.02127048
C       13.53819480       4.93572254       4.99129674      -0.00931099      -0.00220035       0.01179879
C       12.30471962       5.64750055       4.99631394      -0.00196921       0.00170953      -0.00020672
C       12.30475448       7.07172257       5.00427197      -0.00239884      -0.00207822      -0.00797376
C       11.07129631       7.78335574       5.00977686       0.00211936       0.00366228      -0.00779661
C       11.07184377       9.20742426       5.01238636      -0.00817071       0.00426546      -0.00891916
C        9.83842894       9.91968623       5.01728250      -0.00256159       0.00158663      -0.00604389
C        9.83853323      11.34413172       5.01838176      -0.00500362      -0.00488947      -0.00119428
C        8.60512912      12.05610479       5.02743513      -0.00102047       0.00076645      -0.01371401
C        8.60521957      13.48035970       5.02872684      -0.00599607      -0.00273591      -0.01664455
C        7.37156866      14.19258941       5.02854676      -0.00105235      -0.00598116      -0.01621492
C        5.03696300       8.51444112       8.38234070       0.00374353      -0.00016506      -0.00791925
O        4.19154139       9.33092598       8.40241130       0.01510729      -0.01469437      -0.00746263
O        5.88241294       7.69783643       8.36409920      -0.01760460       0.01678108       0.00268552
