179
Lattice="10.720992125991367 0.0 0.0 -5.360496062995684 9.284647205911675 0.0 0.0 0.0 34.99999747733031" Properties=species:S:1:pos:R:3:forces:R:3 energy=-73227.2173616425 free_energy=-73227.2173616425 pbc="T T T"
Si       1.78683208      -0.00000002       5.05623624       0.00035121       0.00002700      -0.02527420
Si       0.89341603       1.54744198      12.64850174       0.00028822       0.00053582      -0.16287681
Si       0.89341603       1.54744198       2.52836107       0.00030956       0.00035404       0.27108632
Si       1.78683208      -0.00000002      10.12062657      -0.00050316      -0.00091763      -0.07269383
Si       0.00183887       0.00233953      15.17132050      -0.00188899      -0.00277319       0.00095542
Si       0.00000000       0.00000000       7.58805938       0.00005965       0.00004397      -0.09749186
C        0.00000000       0.00000000       5.68435955       0.00002108       0.00006119       0.08548044
C        0.00000000       0.00000000      13.27662505       0.00174578       0.00207899      -0.03642508
C        1.78683208      -0.00000002       3.15844319       0.00192241      -0.00001311       0.08495208
C        0.89341603       1.54744198      10.75070869      -0.00130663       0.00172804       0.03648987
C        0.89341603       1.54744198       0.63055283       0.00274054       0.00472080      -0.19349968
C        1.78683208      -0.00000002       8.22281833       0.00212630       0.00028514       0.10384737
Si       1.78683208       3.09488391       5.05623624       0.00014758       0.00028771      -0.02531457
Si       3.57366413       0.00000002      12.64850174       0.00020852       0.00036870      -0.15982826
Si       3.57366413       0.00000002       2.52836107       0.00038078       0.00007893       0.27089554
Si       1.78683208       3.09488391      10.12062657      -0.00054816       0.00172315      -0.07260821
Si      -0.00051661       3.09475754      15.17123536       0.00189362       0.00164114       0.00091068
Si       0.00000000       3.09488393       7.58805938       0.00005399       0.00044403      -0.09750857
C        0.00000000       3.09488393       5.68435955       0.00000489       0.00220318       0.08554420
C        0.00000000       3.09488393      13.27662505       0.00015658       0.00189259      -0.03825596
C        1.78683208       3.09488391       3.15844319       0.00097779       0.00174192       0.08482301
C        3.57366413       0.00000002      10.75070869       0.00325553      -0.00233173       0.03744863
C        3.57366413       0.00000002       0.63055283       0.00542966       0.00009153      -0.19379947
C        1.78683208       3.09488391       8.22281833       0.00120713       0.00125727       0.10377615
Si      -0.89341603       1.54744195       5.05623624      -0.00014758       0.00031496      -0.02526340
Si      -1.78683208       3.09488395      12.64850174       0.00109015       0.00100684      -0.15941354
Si      -1.78683208       3.09488395       2.52836107      -0.00028359       0.00031265       0.27090968
Si      -0.89341603       1.54744195      10.12062657       0.00174732       0.00032344      -0.07269743
Si       2.68057034       1.54632892      15.17204676      -0.00061629       0.00338331       0.00032370
Si       2.68024811       1.54744196       7.58805938       0.00030339       0.00020183      -0.09779834
C        2.68024811       1.54744196       5.68435955       0.00190082       0.00111792       0.08541539
C        2.68024811       1.54744196      13.27662505       0.00250477       0.00042320      -0.01592541
C       -0.89341603       1.54744195       3.15844319      -0.00092405       0.00166376       0.08495388
C       -1.78683208       3.09488395      10.75070869      -0.00010799       0.00349079       0.03771680
C       -1.78683208       3.09488395       0.63055283      -0.00268706       0.00471540      -0.19379536
C       -0.89341603       1.54744195       8.22281833      -0.00153572       0.00164962       0.10381575
C       -0.01620107      -0.09545055      18.60951418      -0.00056564       0.00034581      -0.00097856
C        1.32487858       0.67919456      18.61048372       0.00016352      -0.00048234      -0.00224740
C       -1.35682371       2.22552733      18.61102462      -0.00026380       0.00029876      -0.00120199
C       -0.01589912       2.99929132      18.60918830       0.00040135       0.00003111      -0.00224997
C        2.66397152      -0.09410495      18.61067871       0.00005014      -0.00061604      -0.00197384
C        4.00290457       0.67910164      18.61043508      -0.00021546      -0.00054353      -0.00213890
C        1.32513644       2.22573228      18.60912560       0.00001594       0.00028256      -0.00310281
C        2.66398800       2.99907574      18.60593656       0.00004422      -0.00046228      -0.00388185
Si      -0.89341603       4.64232588       5.05623624      -0.00000283       0.00022137      -0.02535159
Si      -1.78683208       6.18976788      12.64850174      -0.00001800      -0.00080270      -0.16234845
Si      -1.78683208       6.18976788       2.52836107       0.00028308      -0.00006248       0.27064383
Si      -0.89341603       4.64232588      10.12062657      -0.00040855      -0.00101044      -0.07271131
Si      -2.67834296       4.64444707      15.17129000      -0.00226257      -0.00275391       0.00100864
Si      -2.68024811       4.64232589       7.58805938       0.00013755      -0.00000180      -0.09758031
C       -2.68024811       4.64232589       5.68435955       0.00000566       0.00003985       0.08555963
C       -2.68024811       4.64232589      13.27662505       0.00188333       0.00162751      -0.03637442
C       -0.89341603       4.64232588       3.15844319       0.00000566       0.00107704       0.08474047
C       -1.78683208       6.18976788      10.75070869      -0.00110120      -0.00017149       0.03706117
C       -1.78683208       6.18976788       0.63055283       0.00277448      -0.00150332      -0.19385629
C       -0.89341603       4.64232588       8.22281833       0.00013087       0.00150050       0.10383452
Si      -0.89341603       7.73720981       5.05623624       0.00018923      -0.00006016      -0.02536162
Si       0.89341603       4.64232591      12.64850174       0.00131512      -0.00080835      -0.16201267
Si       0.89341603       4.64232591       2.52836107      -0.00008639       0.00029902       0.27086058
Si      -0.89341603       7.73720981      10.12062657      -0.00075616       0.00117371      -0.07293783
Si      -2.68163916       7.73668690      15.17132220       0.00154960       0.00192447       0.00095954
Si      -2.68024811       7.73720982       7.58805938       0.00027074      -0.00013935      -0.09756797
C       -2.68024811       7.73720982       5.68435955       0.00191547      -0.00104438       0.08557428
C       -2.68024811       7.73720982      13.27662505       0.00141925      -0.00246415      -0.03583424
C       -0.89341603       7.73720981       3.15844319       0.00095825      -0.00054764       0.08478573
C        0.89341603       4.64232591      10.75070869       0.00111534      -0.00095594       0.03689353
C        0.89341603       4.64232591       0.63055283      -0.00001054       0.00321028      -0.19399308
C       -0.89341603       7.73720981       8.22281833       0.00122924      -0.00092174       0.10391242
Si      -3.57366413       6.18976784       5.05623624       0.00015992      -0.00024066      -0.02534336
Si      -4.46708018       7.73720984      12.64850174       0.00068751       0.00013138      -0.15913714
Si      -4.46708018       7.73720984       2.52836107       0.00015298      -0.00044763       0.27096831
Si      -3.57366413       6.18976784      10.12062657       0.00184631      -0.00046640      -0.07273497
Si       0.00062790       6.18643306      15.17212949      -0.00004319       0.00335323       0.00038258
Si       0.00000000       6.18976786       7.58805938       0.00001594      -0.00009462      -0.09787470
C        0.00000000       6.18976786       5.68435955       0.00001466       0.00003445       0.08543596
C        0.00000000       6.18976786      13.27662505       0.00054662      -0.00287655      -0.01367518
C       -3.57366413       6.18976784       3.15844319       0.00104747      -0.00173601       0.08489294
C       -4.46708018       7.73720984      10.75070869       0.00172778      -0.00000823       0.03758104
C       -4.46708018       7.73720984       0.63055283       0.00270249      -0.00463107      -0.19344312
C       -3.57366413       6.18976784       8.22281833       0.00044943      -0.00159794       0.10388208
C       -2.69667893       4.54659223      18.60963302      -0.00001774      -0.00002545      -0.00029542
C       -1.35551218       5.32100154      18.61100899      -0.00005245       0.00043272      -0.00116728
C       -4.03727190       6.86771482      18.61092328      -0.00003317      -0.00014552      -0.00107755
C       -2.69665326       7.64165971      18.60934881      -0.00012650       0.00016789      -0.00039364
C       -0.01586159       4.54776245      18.61060442      -0.00002803      -0.00028668      -0.00240347
C        1.32365802       5.32044110      18.60898635       0.00038644      -0.00035713      -0.00277165
C       -1.35594712       6.86760472      18.61090492      -0.00009796       0.00003754      -0.00090143
C       -0.01633633       7.64126303      18.61090098      -0.00028848      -0.00013344      -0.00117319
Si       7.14732829      -0.00000002       5.05623624      -0.00029156       0.00001517      -0.02532280
Si       6.25391224       1.54744198      12.64850174      -0.00131769       0.00002468      -0.16220473
Si       6.25391224       1.54744198       2.52836107      -0.00006608       0.00017072       0.27091200
Si       7.14732829      -0.00000002      10.12062657      -0.00123310      -0.00117062      -0.07278433
Si       5.36207548       0.00221484      15.17129754      -0.00217798      -0.00267343       0.00098216
Si       5.36049621       0.00000000       7.58805938      -0.00001363       0.00008562      -0.09758622
C        5.36049621       0.00000000       5.68435955       0.00005554       0.00004577       0.08554343
C        5.36049621       0.00000000      13.27662505       0.00116162       0.00197152      -0.03628572
C        7.14732829      -0.00000002       3.15844319      -0.00197769      -0.00003060       0.08471759
C        6.25391224       1.54744198      10.75070869      -0.00295523       0.00083689       0.03715141
C        6.25391224       1.54744198       0.63055283      -0.00265903       0.00164551      -0.19398896
C        7.14732829      -0.00000002       8.22281833      -0.00169307       0.00034838       0.10392708
Si       7.14732829       3.09488391       5.05623624      -0.00018075       0.00014450      -0.02536059
Si       8.93416034       0.00000002      12.64850174      -0.00010284      -0.00069600      -0.15997070
Si       8.93416034       0.00000002       2.52836107      -0.00042526       0.00008510       0.27114571
Si       7.14732829       3.09488391      10.12062657      -0.00110120       0.00137400      -0.07292831
Si       5.35808849       3.09450114      15.17124348       0.00133003       0.00189593       0.00091968
Si       5.36049621       3.09488393       7.58805938      -0.00007868       0.00007585      -0.09755434
C        5.36049621       3.09488393       5.68435955       0.00000566       0.00002828       0.08559999
C        5.36049621       3.09488393      13.27662505      -0.00198232      -0.00106572      -0.03773068
C        7.14732829       3.09488391       3.15844319      -0.00099964       0.00055279       0.08479473
C        8.93416034       0.00000002      10.75070869      -0.00069394      -0.00227491       0.03728665
C        8.93416034       0.00000002       0.63055283      -0.00540420       0.00006119      -0.19349865
C        7.14732829       3.09488391       8.22281833      -0.00067337       0.00017869       0.10389365
Si       4.46708018       1.54744195       5.05623624       0.00020055       0.00010901      -0.02533745
Si       3.57366413       3.09488395      12.64850174       0.00016044       0.00125290      -0.16244641
Si       3.57366413       3.09488395       2.52836107       0.00014038       0.00000026       0.27087626
Si       4.46708018       1.54744195      10.12062657       0.00156349       0.00043760      -0.07261875
Si       8.04084841       1.54487839      15.17220009      -0.00036175       0.00324113       0.00042346
Si       8.04074432       1.54744196       7.58805938      -0.00031650       0.00009205      -0.09786159
C        8.04074432       1.54744196       5.68435955      -0.00188153       0.00112126       0.08541230
C        8.04074432       1.54744196      13.27662505      -0.00226283      -0.00045740      -0.01257552
C        4.46708018       1.54744195       3.15844319       0.00105184       0.00058621       0.08476207
C        3.57366413       3.09488395      10.75070869       0.00207694       0.00237493       0.03684237
C        3.57366413       3.09488395       0.63055283       0.00273385       0.00159974      -0.19403884
C        4.46708018       1.54744195       8.22281833       0.00050934       0.00047308       0.10383606
C        5.34395848      -0.09533428      18.60942420       0.00067183       0.00013473      -0.00071708
C        6.68498369       0.67901701      18.61090594       0.00012598      -0.00038978      -0.00070474
C        4.00270757       2.22596129      18.60905567       0.00049622      -0.00012238      -0.00296525
C        5.34365870       2.99939735      18.60911070       0.00002982      -0.00010053      -0.00218929
C        8.02449369      -0.09419303      18.61087711      -0.00016044       0.00034350      -0.00072994
C        9.36383669       0.67876667      18.61096744       0.00019926       0.00002751      -0.00085026
C        6.68459109       2.22545488      18.61097196       0.00025762       0.00021494      -0.00110095
C        8.02441634       2.99889477      18.61111163       0.00014758       0.00048902      -0.00076747
Si       4.46708018       4.64232588       5.05623624      -0.00001774      -0.00018563      -0.02533771
Si       3.57366413       6.18976788      12.64850174      -0.00142079      -0.00196124      -0.16217105
Si       3.57366413       6.18976788       2.52836107      -0.00010439      -0.00037178       0.27094568
Si       4.46708018       4.64232588      10.12062657      -0.00106084      -0.00156452      -0.07259793
Si       2.68170388       4.64319757      15.17115302      -0.00183834      -0.00257984       0.00091994
Si       2.68024811       4.64232589       7.58805938       0.00009282       0.00006042      -0.09750703
C        2.68024811       4.64232589       5.68435955       0.00002468       0.00006736       0.08547632
C        2.68024811       4.64232589      13.27662505       0.00120328       0.00073842      -0.04089237
C        4.46708018       4.64232588       3.15844319      -0.00001594      -0.00116317       0.08471348
C        3.57366413       6.18976788      10.75070869      -0.00306296      -0.00127347       0.03676832
C        3.57366413       6.18976788       0.63055283      -0.00266161      -0.00464187      -0.19380744
C        4.46708018       4.64232588       8.22281833       0.00029079      -0.00067954       0.10379903
Si       4.46708018       7.73720981       5.05623624      -0.00017638      -0.00026997      -0.02527189
Si       6.25391224       4.64232591      12.64850174      -0.00031779      -0.00103153      -0.16035148
Si       6.25391224       4.64232591       2.52836107      -0.00006248      -0.00010413       0.27070785
Si       4.46708018       7.73720981      10.12062657      -0.00118708       0.00075539      -0.07287715
Si       2.67868712       7.73662484      15.17130228       0.00167919       0.00124004       0.00094951
Si       2.68024811       7.73720982       7.58805938      -0.00037795      -0.00013935      -0.09755640
C        2.68024811       7.73720982       5.68435955      -0.00187665      -0.00105724       0.08551823
C        2.68024811       7.73720982      13.27662505      -0.00341982      -0.00302850      -0.03658191
C        4.46708018       7.73720981       3.15844319      -0.00103050      -0.00165579       0.08497059
C        6.25391224       4.64232591      10.75070869       0.00166890      -0.00346739       0.03742112
C        6.25391224       4.64232591       0.63055283      -0.00004422      -0.00304701      -0.19387558
C        4.46708018       7.73720981       8.22281833      -0.00063840      -0.00195712       0.10384120
Si       1.78683208       6.18976784       5.05623624      -0.00014938      -0.00010747      -0.02533102
Si       0.89341603       7.73720984      12.64850174       0.00059290       0.00005528      -0.15964519
Si       0.89341603       7.73720984       2.52836107      -0.00025197      -0.00023037       0.27091123
Si       1.78683208       6.18976784      10.12062657       0.00155320      -0.00040932      -0.07261078
Si       5.36027401       6.18645250      15.17215646      -0.00084384       0.00334758       0.00038207
Si       5.36049621       6.18976786       7.58805938      -0.00001106      -0.00048620      -0.09785053
C        5.36049621       6.18976786       5.68435955       0.00000051      -0.00215664       0.08538171
C        5.36049621       6.18976786      13.27662505      -0.00044634      -0.00566543      -0.01337591
C        1.78683208       6.18976784       3.15844319      -0.00092997      -0.00054893       0.08476130
C        0.89341603       7.73720984      10.75070869      -0.00036330       0.00151464       0.03769803
C        0.89341603       7.73720984       0.63055283      -0.00271354      -0.00152389      -0.19400156
C        1.78683208       6.18976784       8.22281833      -0.00149921      -0.00044660       0.10387874
C        2.66393655       4.54639896      18.60421190       0.00028282      -0.00048542      -0.00334475
C        4.00423715       5.32062222      18.60898530      -0.00019309      -0.00041189      -0.00283490
C        1.32336210       6.86747693      18.61045167       0.00040263      -0.00005991      -0.00205714
C        2.66394674       7.64155360      18.60927335       0.00017586       0.00031419      -0.00145730
C        5.34383200       4.54779454      18.61056229       0.00008870      -0.00050779      -0.00245643
C        6.68325589       5.32085099      18.61100456       0.00004448       0.00070397      -0.00129764
C        4.00455307       6.86729169      18.61049750      -0.00045791       0.00011159      -0.00226103
C        5.34427904       7.64119374      18.61096157       0.00011133       0.00020363      -0.00136783
C        2.63805747       3.79884896      22.94193901      -0.00078830      -0.00025145       0.00369159
O        2.63105351       3.78863883      24.11318767      -0.00078881      -0.00037821       0.00860882
O        2.64523480       3.80907010      21.76496582      -0.00086466      -0.00024425       0.00671315
