48
Lattice="8.315575849598094 0.0 0.0 4.157787924799047 7.20149657514819 0.0 0.0 0.0 19.999999365264614" Properties=species:S:1:pos:R:3:forces:R:3 energy=-281406.80096901156 free_energy=-281406.80096901156 pbc="T T T"
Pt       3.00284680       1.20024997       7.73678694      -0.00002108      -0.08356574      -0.51151172
Pt       5.77470538       1.20024997       7.73678694      -0.00010516      -0.08254835      -0.51256613
Pt       8.54656396       1.20024997       7.73678694      -0.00011519      -0.08253910      -0.51259441
Pt       4.38877609       3.60074992       7.73678694       0.00021572      -0.08118824      -0.51191358
Pt       7.16063467       3.60074992       7.73678694      -0.00008845      -0.08159062      -0.51042080
Pt       9.93249325       3.60074992       7.73678694      -0.00038567      -0.08114479      -0.51189815
Pt       5.77470538       6.00124987       7.73678694      -0.00082301      -0.08100029      -0.51573347
Pt       8.54656396       6.00124987       7.73678694       0.00069445      -0.08078072      -0.51603377
Pt      11.31842254       6.00124987       7.73678694      -0.00009333      -0.08202205      -0.51431576
Pt       1.61691751       2.00041662      10.00000000       0.00164293       0.08015620       0.51233473
Pt       4.38877609       2.00041662      10.00000000      -0.00096853       0.08010966       0.51277670
Pt       7.16063467       2.00041662      10.00000000       0.00023089       0.08027190       0.51146852
Pt       3.00284680       4.40091657      10.00000000       0.00036767       0.08037783       0.51330301
Pt       5.77470538       4.40091657      10.00000000      -0.00016918       0.08283760       0.50917536
Pt       8.54656396       4.40091657      10.00000000       0.00078290       0.08315719       0.50895398
Pt       4.38877609       6.80141652      10.00000000       0.00068803       0.08073264       0.51269005
Pt       7.16063467       6.80141652      10.00000000       0.00037847       0.08166852       0.51114739
Pt       9.93249325       6.80141652      10.00000000      -0.00013498       0.08097355       0.51274430
Pt       1.61806405       0.69810353      12.36356371      -0.00156297       0.00600044       0.00350981
Pt       4.38892541       0.69806467      12.36363266       0.00625292       0.00771151       0.00271560
Pt       7.16131368       0.69750688      12.36333560       0.00148995       0.00670749      -0.00538389
Pt       3.00341547       3.09920653      12.36340797       0.00398727      -0.00282770       0.00485013
Pt       5.77529133       3.09873420      12.36245057      -0.00036664      -0.00136500      -0.00751508
Pt       8.54742653       3.09868948      12.36238666       0.00239138      -0.00176249      -0.00709342
Pt       4.38912576       5.49998572      12.36351446       0.00692038      -0.01036180       0.00405540
Pt       7.16137137       5.50056114      12.36311462       0.00088215      -0.00969203       0.00306167
Pt       9.93342060       5.49994340      12.36348645      -0.00191470      -0.00929120       0.00415619
C        1.61819710       1.42871069      14.42075290       0.01133008      -0.00649358      -0.00699751
C        3.00447470       2.25638631      14.43613531      -0.00144599      -0.00593616      -0.00019720
C        3.00435886       3.82781176      14.42224354      -0.00126524       0.00809280      -0.00473494
C        4.39056986       4.65552285      14.43630589      -0.01076598       0.00945035      -0.00910736
C        4.39063786       6.22839505      14.42163401      -0.00998796       0.00522911      -0.00188925
C        5.77577683       7.05722296      14.43632237       0.01008078       0.00072582      -0.00258550
C        4.39052107       1.42870569      14.42082098      -0.01360242      -0.00641799      -0.00671624
C        5.77535457       2.25627474      14.43017163       0.00637248      -0.00103076       0.01457276
C        5.77530024       3.82882327      14.41680814       0.00753925      -0.00144316       0.02059325
C        7.16224333       4.65630486      14.43533802      -0.00087418       0.00389291      -0.00288863
C        7.16213219       6.22947072      14.42141514      -0.00103513       0.00842473      -0.00392196
C        8.54871990       7.05720040      14.43633189      -0.01259763       0.00072582      -0.00258602
C        7.16214934       1.42829098      14.41824401      -0.00095311      -0.00506816       0.00152184
C        8.54917028       2.25633033      14.42980198      -0.00856846      -0.00133852       0.01499570
C        8.54895765       3.82878067      14.41679371      -0.00905003      -0.00116908       0.01977924
C        9.93391255       4.65550942      14.43629127       0.00868801       0.00932436      -0.00908319
C        9.93363255       6.22839694      14.42158446       0.00811157       0.00480436      -0.00135780
C       11.32005471       7.05601482      14.43642620      -0.00117602      -0.00258884      -0.00358900
C        7.15591398       2.85233915      17.76347066      -0.00122462       0.00040469      -0.00752176
O        8.32986227       2.84121770      17.75027690      -0.00159100       0.00066592       0.00174449
O        5.98192324       2.86333440      17.76638956       0.00183962       0.00072068       0.00000720
