101
Lattice="17.265850017958673 -0.00010359510010775204 0.0 -8.633011338229426 14.952692293502695 0.0 -0.0 0.0 15.000000722551901" Properties=species:S:1:pos:R:3:forces:R:3 energy=-25986.081760516932 free_energy=-25986.081760516932 pbc="T T T"
C        1.20438463       0.66230895       5.00994191       0.00525559      -0.00587060       0.00002725
C       -0.02861020       1.37415975       5.00993964      -0.00641979       0.00378518       0.00003651
C       -0.02858788       2.79828926       5.00805054      -0.00008408       0.00065872      -0.00025557
C       -1.26176421       3.51024046       5.00644367       0.00237467       0.00263667       0.00294366
C       -1.26190868       4.93442421       5.00464558      -0.00576081      -0.00437576       0.00071245
C       -2.49526955       5.64632482       5.00630871       0.00494912       0.00918038       0.00300125
C       -2.49557349       7.07068912       5.00785985       0.00105492      -0.01058060      -0.00027639
C       -3.72883766       7.78254377       5.00989796      -0.00085489       0.00967738       0.00006402
C       -3.72927700       9.20689833       5.01002708       0.00526279      -0.01132160      -0.00011750
C       -4.96251177       9.91877379       5.00775397       0.00230088       0.00528105      -0.00081093
C       -4.96270490      11.34300294       5.00636534       0.00114568      -0.00646452       0.00217541
C       -6.19595509      12.05489318       5.00422437       0.00705562       0.00194530      -0.00011570
C       -6.19584789      13.47906091       5.00621572       0.00284364      -0.00793622       0.00227491
C       -7.42887783      14.19085664       5.00756930      -0.00152389       0.00539263      -0.00079781
C        3.67088689       0.66238665       5.00644846      -0.00253202       0.00294160       0.00295086
C        2.43766309       1.37439713       5.00805283       0.00371447      -0.00112897      -0.00025248
C        2.43789988       2.79841765       5.00333465      -0.00037615       0.00519491      -0.00411145
C        1.20457646       3.51048771       5.00333443       0.00330541       0.00193244      -0.00412405
C        1.20459093       4.93459909       4.99440003      -0.00303930       0.00058595      -0.00514118
C       -0.02892677       5.64654963       4.99833424       0.01135502       0.00396464      -0.00427677
C       -0.02896390       7.07076435       4.99405896      -0.00287398      -0.00034016      -0.00493472
C       -1.26251128       7.78278357       5.00298018       0.00944315       0.00162134      -0.00408574
C       -1.26272790       9.20694470       5.00297028       0.00597344      -0.00345788      -0.00423409
C       -2.49606735       9.91893005       5.00802844       0.00141616       0.00464341      -0.00059830
C       -2.49630926      11.34313811       5.00651352       0.01008721      -0.00607269       0.00248960
C       -3.72953935      12.05505658       5.00622814       0.00432562       0.00269195       0.00578473
C       -3.72935405      13.47914724       5.00517079       0.00251660      -0.00350030       0.00781307
C       -4.96262662      14.19111681       5.00609113       0.00891607      -0.00077133       0.00605443
C        6.13752714       0.66218749       5.00631127       0.00244049       0.00720757       0.00299945
C        4.90427394       1.37437942       5.00464962       0.00147427      -0.00881297       0.00071091
C        4.90452534       2.79818914       4.99833671      -0.00284441       0.01430279      -0.00428654
C        3.67120582       3.51054243       4.99440110       0.00164114      -0.00668847      -0.00510852
C        3.67120081       4.93446168       4.97859941       0.00198515       0.00721297      -0.00260658
C        2.43782031       5.64664927       4.97859908       0.00087392      -0.00121536      -0.00252662
C        2.43792175       7.07076925       4.96546887       0.00197024       0.00551502       0.00169564
C        1.20429579       7.78276555       4.97806449       0.00380986      -0.00759761      -0.00240887
C        1.20409372       9.20667818       4.97767408       0.00302079       0.00836226      -0.00236721
C       -0.02934777       9.91890439       4.99368330       0.00143673      -0.00782232      -0.00511855
C       -0.02960032      11.34288348       4.99768105       0.01145118       0.00188436      -0.00441021
C       -1.26276852      12.05497275       5.00447603      -0.00692347      -0.00174475       0.00027537
C       -1.26277398      13.47898214       5.00621326       0.01255290      -0.00218441       0.00262972
C       -2.49588662      14.19102317       5.00601105      -0.00323188      -0.00257342       0.00624804
C        8.60432908       0.66201313       5.00989085       0.00521343       0.00056667       0.00004628
C        7.37114480       1.37408754       5.00785746      -0.00651980      -0.00296551      -0.00027614
C        7.37133433       2.79800462       5.00297765      -0.00286369       0.00970257      -0.00408934
C        6.13794057       3.51031442       4.99405996       0.00087469      -0.00586160      -0.00491595
C        6.13787871       4.93425491       4.97806487      -0.00426212       0.00675455      -0.00245720
C        4.90453841       5.64675978       4.96546711      -0.00008253      -0.00378646       0.00180209
C        4.90436085       7.07062598       4.94685755       0.00118579       0.00244949       0.00929917
C        3.67120601       7.78270671       4.94685840      -0.00364171      -0.00730708       0.00937193
C        3.67102338       9.20634707       4.94589740      -0.00192267       0.00779816       0.00980027
C        2.43774980       9.91851965       4.96422447       0.00192473      -0.01093130       0.00205225
C        2.43742389      11.34248784       4.97669666      -0.00258422       0.00621050      -0.00189387
C        1.20400767      12.05472094       4.99306007       0.00267472      -0.00627529      -0.00505762
C        1.20417028      13.47870666       5.00227998       0.00474934      -0.00384123      -0.00423769
C       -0.02902931      14.19072897       5.00760787      -0.00603052       0.00109040      -0.00051782
C       11.07115782       0.66169385       5.00773972       0.00209828       0.00451871      -0.00081890
C        9.83801208       1.37379445       5.01001465      -0.01079915      -0.00225614      -0.00011750
C        9.83802575       2.79775673       5.00801725       0.00667870       0.00643599      -0.00059804
C        8.60483180       3.50993671       5.00296447      -0.00973728      -0.00079139      -0.00421687
C        8.60461239       4.93394644       4.99368369      -0.00073508       0.00472337      -0.00512575
C        7.37122004       5.64619038       4.97767608      -0.00114697      -0.00213941      -0.00233765
C        7.37073192       7.07032937       4.96422819      -0.00367899       0.00448169       0.00206074
C        6.13747229       7.78247004       4.94589712       0.00050291      -0.00811080       0.00977559
C        6.13729061       9.20611206       4.94490653      -0.00094385       0.00649692       0.01020497
C        4.90412796       9.91822577       4.94490767      -0.00010773      -0.00860960       0.01011498
C        4.90407951      11.34191620       4.96295217      -0.00186868       0.00800230       0.00274928
C        3.67079080      12.05439788       4.97624463       0.00468892      -0.00751328      -0.00192319
C        3.67100779      13.47833154       4.99261845      -0.00209802       0.00133106      -0.00490489
C        2.43772101      14.19049577       5.00223277       0.00087829      -0.00425595      -0.00431354
C       13.53781619       0.66156375       5.00421313      -0.00395796       0.00593359      -0.00012573
C       12.30463398       1.37365813       5.00635108      -0.00438219      -0.00355481       0.00216770
C       12.30472182       2.79761154       5.00621468       0.00062092       0.00639279       0.00578755
C       11.07159197       3.50969996       5.00650234      -0.01257244       0.00279967       0.00250451
C       11.07124163       4.93384826       5.00447305       0.00481850      -0.00415233       0.00027099
C        9.83804659       5.64582871       4.99768402      -0.00951745       0.00674580      -0.00442255
C        9.83762984       7.07004746       4.99306870      -0.00329873      -0.00019746      -0.00502676
C        8.60419374       7.78213818       4.97670517       0.00109092      -0.00276548      -0.00195301
C        8.60395865       9.20615933       4.97625235      -0.00523451       0.00411505      -0.00186971
C        7.37037014       9.91808222       4.96295633       0.00292283      -0.00384354       0.00264926
C        7.37055474      11.34219076       4.97586107       0.00161157       0.00105158      -0.00179900
C        6.13733608      12.05422551       4.97585936      -0.00133466      -0.00096468      -0.00184605
C        6.13751121      13.47828074       4.99239095       0.00162751      -0.00318868      -0.00504245
C        4.90440422      14.19034447       4.99696796      -0.00018486      -0.00214713      -0.00445546
C       16.00405842       0.66182134       5.00756468       0.00396336      -0.00225126      -0.00080656
C       14.77110079       1.37372151       5.00620724      -0.00786732       0.00022343       0.00227260
C       14.77114345       2.79778934       5.00608270      -0.00524505       0.00469021       0.00605803
C       13.53794306       3.50981517       5.00516065      -0.00531601       0.00160643       0.00781744
C       13.53769288       4.93400065       5.00600592      -0.00100324      -0.00606035       0.00624804
C       12.30451776       5.64586341       5.00621223      -0.01004324       0.01128663       0.00263744
C       12.30400793       7.07026130       5.00761461       0.00357949      -0.00996611      -0.00052039
C       11.07080810       7.78215337       5.00229090      -0.00810540       0.00541731      -0.00424772
C       11.07041194       9.20639474       5.00224616      -0.00261661      -0.00391708      -0.00429837
C        9.83708150       9.91836251       4.99263058      -0.00138043      -0.00158688      -0.00494732
C        9.83695163      11.34253966       4.99697762      -0.00104438      -0.00323316      -0.00445726
C        8.60377265      12.05438435       4.99239607      -0.00552813       0.00081093      -0.00505710
C        8.60378788      13.47856756       5.00198803       0.00846330      -0.00887853      -0.00446858
C        7.37085056      14.19038593       5.00198571      -0.01096473       0.00527668      -0.00445624
C        4.92487690       8.52988209       9.19073370      -0.00029773      -0.00053093      -0.00149741
O        4.92172725       8.52406294       8.01646763      -0.00063249      -0.00104747       0.01003476
O        4.92810930       8.53583197      10.36469265      -0.00010619      -0.00014115       0.00545151
