179
Lattice="10.720992125991367 0.0 0.0 -5.360496062995684 9.284647205911675 0.0 0.0 0.0 34.99999747733031" Properties=species:S:1:pos:R:3:forces:R:3 energy=-73584.30781991826 free_energy=-73584.30781991826 pbc="T T T"
Si       1.78683208      -0.00000002       5.05623624       0.00063789       0.00069574      -0.02089818
Si       0.89341603       1.54744198      12.64850174       0.00530804       0.01061171       0.01139487
Si       0.89341603       1.54744198       2.52836107       0.00025043       0.00023089       0.24536809
Si       1.78683208      -0.00000002      10.12062657      -0.00526253      -0.00966246      -0.07686776
Si      -0.04737102      -0.07165002      15.16997808       0.00162005      -0.00277859      -0.00749117
Si       0.00000000       0.00000000       7.58805938      -0.00065460      -0.00123156      -0.09194933
C        0.00000000       0.00000000       5.68435955      -0.00017586       0.00015324       0.08352074
C        0.00000000       0.00000000      13.27662505      -0.03866682      -0.05363964      -0.04602686
C        1.78683208      -0.00000002       3.15844319       0.00202809       0.00024168       0.08335259
C        0.89341603       1.54744198      10.75070869      -0.00403278      -0.00571376       0.05256723
C        0.89341603       1.54744198       0.63055283       0.00198566       0.00352935      -0.20118497
C        1.78683208      -0.00000002       8.22281833       0.00322339       0.00244409       0.09889414
Si       1.78683208       3.09488391       5.05623624      -0.00022111      -0.00045097      -0.02087916
Si       3.57366413       0.00000002      12.64850174       0.00563894       0.01014326       0.00651980
Si       3.57366413       0.00000002       2.52836107       0.00027048       0.00008356       0.24524853
Si       1.78683208       3.09488391      10.12062657       0.00467838       0.01159259      -0.06920510
Si       0.04505486       3.16740183      15.16946504      -0.00116831       0.00105441      -0.00781075
Si       0.00000000       3.09488393       7.58805938       0.00080038       0.00135960      -0.09418491
C        0.00000000       3.09488393       5.68435955       0.00009924       0.00207539       0.08235192
C        0.00000000       3.09488393      13.27662505       0.03474795       0.05671571      -0.05359567
C        1.78683208       3.09488391       3.15844319       0.00111637       0.00205508       0.08281883
C        3.57366413       0.00000002      10.75070869      -0.00195815      -0.00834220       0.05147863
C        3.57366413       0.00000002       0.63055283       0.00444518      -0.00041626      -0.20147576
C        1.78683208       3.09488391       8.22281833      -0.00088832      -0.00251634       0.09637677
Si      -0.89341603       1.54744195       5.05623624       0.00026637       0.00081504      -0.02094266
Si      -1.78683208       3.09488395      12.64850174       0.00528824       0.00885642       0.00920815
Si      -1.78683208       3.09488395       2.52836107      -0.00016224       0.00029671       0.24537657
Si      -0.89341603       1.54744195      10.12062657      -0.00372913      -0.00862142      -0.07627126
Si       2.72686167       1.62350406      15.17005569      -0.00118091      -0.00145319      -0.00822136
Si       2.68024811       1.54744196       7.58805938       0.00091300       0.00138223      -0.09458189
C        2.68024811       1.54744196       5.68435955       0.00202706       0.00132643       0.08209147
C        2.68024811       1.54744196      13.27662505       0.03765303       0.06008488      -0.03526011
C       -0.89341603       1.54744195       3.15844319      -0.00082867       0.00176455       0.08315668
C       -1.78683208       3.09488395      10.75070869      -0.00310924      -0.00228854       0.05262842
C       -1.78683208       3.09488395       0.63055283      -0.00225177       0.00378929      -0.20152589
C       -0.89341603       1.54744195       8.22281833      -0.00006608       0.00365971       0.09887923
C        0.04337603       0.07861279      18.66186738       0.00051731      -0.00080964       0.00124981
C        1.38395563       0.85193737      18.66318348      -0.00000463      -0.00044043      -0.00219624
C       -1.29756574       2.39942272      18.66347287       0.00151387      -0.00028462      -0.00068417
C        0.04311946       3.17341792      18.66069364      -0.00029028      -0.00003394      -0.00114080
C        2.72343041       0.07866544      18.66327457      -0.00028256      -0.00041600      -0.00174089
C        4.06324088       0.85202073      18.66222055      -0.00048902      -0.00038001      -0.00285830
C        1.38353611       2.39871888      18.66125748      -0.00076310      -0.00026225      -0.00392119
C        2.72368811       3.17161975      18.65795147      -0.00152569       0.00041035      -0.00372321
Si      -0.89341603       4.64232588       5.05623624      -0.00039158      -0.00044737      -0.02094292
Si      -1.78683208       6.18976788      12.64850174      -0.00204377      -0.00279556      -0.19281063
Si      -1.78683208       6.18976788       2.52836107       0.00014732      -0.00017021       0.24527090
Si      -0.89341603       4.64232588      10.12062657       0.00557492       0.00818973      -0.06962136
Si      -2.64417382       4.71513431      15.16963331       0.00519209       0.00129789      -0.00750942
Si      -2.68024811       4.64232589       7.58805938       0.00058390       0.00105210      -0.09427233
C       -2.68024811       4.64232589       5.68435955      -0.00002005       0.00019103       0.08221874
C       -2.68024811       4.64232589      13.27662505       0.02522998       0.05378696      -0.05125854
C       -0.89341603       4.64232588       3.15844319       0.00023346       0.00152801       0.08302966
C       -1.78683208       6.18976788      10.75070869       0.00089706       0.00122950       0.00382657
C       -1.78683208       6.18976788       0.63055283       0.00209931      -0.00136346      -0.20189742
C       -0.89341603       4.64232588       8.22281833      -0.00199646      -0.00188668       0.09650610
Si      -0.89341603       7.73720981       5.05623624       0.00050034       0.00054353      -0.02099357
Si       0.89341603       4.64232591      12.64850174      -0.00030828      -0.00236207      -0.20389619
Si       0.89341603       4.64232591       2.52836107      -0.00016866       0.00011519       0.24547299
Si      -0.89341603       7.73720981      10.12062657      -0.00597036      -0.00718752      -0.07669061
Si      -2.72124207       7.66227048      15.17018872       0.00018898      -0.00087752      -0.00717209
Si      -2.68024811       7.73720982       7.58805938      -0.00050548      -0.00124364      -0.09201901
C       -2.68024811       7.73720982       5.68435955       0.00202320      -0.00109735       0.08368375
C       -2.68024811       7.73720982      13.27662505      -0.02893134      -0.05975064      -0.04134128
C       -0.89341603       7.73720981       3.15844319       0.00093048      -0.00040263       0.08279698
C        0.89341603       4.64232591      10.75070869       0.00182266       0.00115725       0.00135960
C        0.89341603       4.64232591       0.63055283      -0.00013061       0.00233919      -0.20195321
C       -0.89341603       7.73720981       8.22281833       0.00232556       0.00111046       0.09901318
Si      -3.57366413       6.18976784       5.05623624      -0.00030288      -0.00086055      -0.02093984
Si      -4.46708018       7.73720984      12.64850174      -0.00338846      -0.00469561      -0.19470681
Si      -4.46708018       7.73720984       2.52836107       0.00007970      -0.00038207       0.24522976
Si      -3.57366413       6.18976784      10.12062657       0.00665350       0.00858080      -0.06940950
Si      -0.03606430       6.11832075      15.17092151      -0.00486350      -0.00349336      -0.00911970
Si       0.00000000       6.18976786       7.58805938      -0.00046974      -0.00112152      -0.09235634
C        0.00000000       6.18976786       5.68435955       0.00008896       0.00037075       0.08350789
C        0.00000000       6.18976786      13.27662505      -0.02677187      -0.05728521      -0.02525800
C       -3.57366413       6.18976784       3.15844319       0.00111894      -0.00147916       0.08285663
C       -4.46708018       7.73720984      10.75070869       0.00319305       0.00245849       0.00289583
C       -4.46708018       7.73720984       0.63055283       0.00235693      -0.00394896      -0.20118934
C       -3.57366413       6.18976784       8.22281833      -0.00137760      -0.00490438       0.09658529
C       -2.63681139       4.72025054      18.66181673       0.00145242      -0.00002571       0.00179412
C       -1.29600709       5.49443257      18.66236285      -0.00003034      -0.00003574      -0.00034427
C       -3.97771053       7.04115214      18.66280258       0.00006196      -0.00079319       0.00117499
C       -2.63646392       7.81555257      18.66189622      -0.00010799      -0.00060652       0.00121947
C        0.04356947       4.72101864      18.66117789      -0.00033501      -0.00001851      -0.00190210
C        1.38245825       5.49480677      18.66058861      -0.00012033       0.00047103      -0.00314369
C       -1.29588087       7.04129060      18.66306135      -0.00076799       0.00014424       0.00064252
C        0.04358271       7.81406466      18.66341182       0.00013395       0.00055819      -0.00089243
Si       7.14732829      -0.00000002       5.05623624      -0.00058570      -0.00066489      -0.02092132
Si       6.25391224       1.54744198      12.64850174      -0.00290200      -0.00131692      -0.19751754
Si       6.25391224       1.54744198       2.52836107      -0.00009076      -0.00002648       0.24539251
Si       7.14732829      -0.00000002      10.12062657       0.00484242       0.00869110      -0.06993298
Si       5.39580363       0.07850535      15.16963959       0.00281741      -0.00075128      -0.00769737
Si       5.36049621       0.00000000       7.58805938       0.00047385       0.00124544      -0.09429958
C        5.36049621       0.00000000       5.68435955      -0.00012238       0.00017689       0.08231952
C        5.36049621       0.00000000      13.27662505       0.02565678       0.06075311      -0.04877280
C        7.14732829      -0.00000002       3.15844319      -0.00171055       0.00037770       0.08315308
C        6.25391224       1.54744198      10.75070869      -0.00107858       0.00262407       0.00268449
C        6.25391224       1.54744198       0.63055283      -0.00245823       0.00112537      -0.20188482
C        7.14732829      -0.00000002       8.22281833      -0.00368259      -0.00308404       0.09652461
Si       7.14732829       3.09488391       5.05623624       0.00014990       0.00074845      -0.02098252
Si       8.93416034       0.00000002      12.64850174       0.00009667      -0.00346893      -0.19828013
Si       8.93416034       0.00000002       2.52836107      -0.00038695      -0.00002751       0.24542645
Si       7.14732829       3.09488391      10.12062657      -0.00618222      -0.00711938      -0.07636125
Si       5.32055136       3.01964137      15.16981876       0.00018075       0.00168742      -0.00727596
Si       5.36049621       3.09488393       7.58805938      -0.00073431      -0.00095876      -0.09199587
C        5.36049621       3.09488393       5.68435955       0.00021417      -0.00012161       0.08362744
C        5.36049621       3.09488393      13.27662505      -0.02863232      -0.05580245      -0.04987426
C        7.14732829       3.09488391       3.15844319      -0.00082944       0.00061552       0.08284403
C        8.93416034       0.00000002      10.75070869      -0.00079473       0.00005914       0.00243843
C        8.93416034       0.00000002       0.63055283      -0.00460433      -0.00024683      -0.20126673
C        7.14732829       3.09488391       8.22281833       0.00052193       0.00226977       0.09882292
Si       4.46708018       1.54744195       5.05623624      -0.00024143      -0.00053993      -0.02092518
Si       3.57366413       3.09488395      12.64850174      -0.00202860      -0.00369082      -0.19795232
Si       3.57366413       3.09488395       2.52836107       0.00006505      -0.00010362       0.24542877
Si       4.46708018       1.54744195      10.12062657       0.00705768       0.00965012      -0.06908760
Si       8.00367215       1.47882033      15.17094921      -0.00616602      -0.00320694      -0.00849235
Si       8.04074432       1.54744196       7.58805938      -0.00089114      -0.00084692      -0.09224527
C        8.04074432       1.54744196       5.68435955      -0.00159691       0.00136731       0.08350686
C        8.04074432       1.54744196      13.27662505      -0.03062004      -0.05452641      -0.02489831
C        4.46708018       1.54744195       3.15844319       0.00113823       0.00086646       0.08279312
C        3.57366413       3.09488395      10.75070869       0.00356509       0.00487790       0.00244126
C        3.57366413       3.09488395       0.63055283       0.00218724       0.00120328      -0.20202212
C        4.46708018       1.54744195       8.22281833      -0.00154472      -0.00307992       0.09649093
C        5.40393410       0.07777767      18.66164679       0.00014090      -0.00075179      -0.00019360
C        6.74434069       0.85221516      18.66266315       0.00047874      -0.00070988      -0.00043863
C        4.06363140       2.39833822      18.65975389      -0.00100479       0.00016995      -0.00351496
C        5.40421166       3.17306460      18.66095835      -0.00069934       0.00022780      -0.00181546
C        8.08438847       0.07861515      18.66257569       0.00055562      -0.00030133       0.00094925
C        9.42385688       0.85252255      18.66310538       0.00133235      -0.00058441       0.00078470
C        6.74457215       2.39917626      18.66318367       0.00054713       0.00017561      -0.00109092
C        8.08445243       3.17217930      18.66371701       0.00168999       0.00044557      -0.00071348
Si       4.46708018       4.64232588       5.05623624       0.00036947       0.00048285      -0.02090693
Si       3.57366413       6.18976788      12.64850174       0.00472132       0.00775599      -0.00191264
Si       3.57366413       6.18976788       2.52836107      -0.00003034      -0.00025043       0.24544291
Si       4.46708018       4.64232588      10.12062657      -0.00583949      -0.00936987      -0.07659136
Si       2.63344903       4.57225285      15.16972265       0.00285701       0.00063506      -0.00747728
Si       2.68024811       4.64232589       7.58805938      -0.00047385      -0.00106984      -0.09184906
C        2.68024811       4.64232589       5.68435955      -0.00024991       0.00006351       0.08370149
C        2.68024811       4.64232589      13.27662505      -0.03693493      -0.05282254      -0.05208387
C        4.46708018       4.64232588       3.15844319       0.00012984      -0.00087752       0.08305357
C        3.57366413       6.18976788      10.75070869      -0.00622258      -0.00880037       0.04999459
C        3.57366413       6.18976788       0.63055283      -0.00256930      -0.00422381      -0.20170947
C        4.46708018       4.64232588       8.22281833       0.00159460       0.00130895       0.09855398
Si       4.46708018       7.73720981       5.05623624      -0.00049314      -0.00089192      -0.02085576
Si       6.25391224       4.64232591      12.64850174       0.00388931       0.00796168       0.00590891
Si       6.25391224       4.64232591       2.52836107      -0.00004911      -0.00001800       0.24536243
Si       4.46708018       7.73720981      10.12062657       0.00382863       0.00988743      -0.06909248
Si       2.72889635       7.80121495      15.16946907      -0.00088497       0.00582818      -0.00697180
Si       2.68024811       7.73720982       7.58805938       0.00052296       0.00078136      -0.09419416
C        2.68024811       7.73720982       5.68435955      -0.00164756      -0.00100350       0.08218968
C        2.68024811       7.73720982      13.27662505       0.03550051       0.04337888      -0.05480923
C        4.46708018       7.73720981       3.15844319      -0.00082944      -0.00138223       0.08293607
C        6.25391224       4.64232591      10.75070869      -0.00300073      -0.00847487       0.05178330
C        6.25391224       4.64232591       0.63055283      -0.00007816      -0.00299971      -0.20182671
C        4.46708018       7.73720981       8.22281833      -0.00255336      -0.00531318       0.09628344
Si       1.78683208       6.18976784       5.05623624       0.00023654       0.00049597      -0.02096606
Si       0.89341603       7.73720984      12.64850174       0.00532527       0.00750968       0.01623420
Si       0.89341603       7.73720984       2.52836107      -0.00013987      -0.00007868       0.24548404
Si       1.78683208       6.18976784      10.12062657      -0.00281176      -0.00969126      -0.07606609
Si       5.40000749       6.26407070      15.16997962       0.00189722       0.00181983      -0.00769300
Si       5.36049621       6.18976786       7.58805938       0.00053505       0.00081093      -0.09450732
C        5.36049621       6.18976786       5.68435955       0.00025711      -0.00168664       0.08198142
C        5.36049621       6.18976786      13.27662505       0.02708683       0.05204761      -0.03930857
C        1.78683208       6.18976784       3.15844319      -0.00087906      -0.00035893       0.08281420
C        0.89341603       7.73720984      10.75070869      -0.00356612      -0.00362371       0.05443462
C        0.89341603       7.73720984       0.63055283      -0.00236130      -0.00151541      -0.20186399
C        1.78683208       6.18976784       8.22281833      -0.00041935       0.00190287       0.09873679
C        2.72362947       4.72124279      18.65795519      -0.00120919       0.00004654      -0.00202911
C        4.06461222       5.49418243      18.66285692      -0.00092071      -0.00002571      -0.00488587
C        1.38230776       7.04085310      18.66268784       0.00073354       0.00145087      -0.00127475
C        2.72351485       7.81494725      18.66135545      -0.00025145       0.00067003       0.00096622
C        5.40383876       4.72056785      18.66355932      -0.00049905       0.00019155      -0.00369108
C        6.74328439       5.49405661      18.66334140       0.00065769      -0.00015478       0.00014038
C        4.06427879       7.04110335      18.66303046      -0.00034864      -0.00011853      -0.00126627
C        5.40391964       7.81457254      18.66275790      -0.00014707      -0.00090503       0.00125393
C        2.62181641       3.79769308      21.90858589       0.01122569      -0.00942566       0.00838591
O        1.50280358       4.15066928      21.87008857      -0.00873635       0.00033296       0.00647841
O        3.74079126       3.44373735      21.93826139      -0.00254899       0.01077267       0.00124827
