48
Lattice="8.315575849598094 0.0 0.0 4.157787924799047 7.20149657514819 0.0 0.0 0.0 19.999999365264614" Properties=species:S:1:pos:R:3:forces:R:3 energy=-278732.7584977301 free_energy=-278732.7584977301 pbc="T T T"
Pt       3.00284680       1.20024997       5.74156598      -0.00487815      -0.08458904      -0.42545124
Pt       5.77470538       1.20024997       5.74156598      -0.00534687      -0.08356599      -0.42590864
Pt       8.54656396       1.20024997       5.74156598      -0.00681394      -0.08034466      -0.43054074
Pt       4.38877609       3.60074992       5.74156598      -0.00503602      -0.08372566      -0.42378285
Pt       7.16063467       3.60074992       5.74156598      -0.00558084      -0.08313585      -0.42440454
Pt       9.93249325       3.60074992       5.74156598      -0.00623698      -0.08249179      -0.42379596
Pt       5.77470538       6.00124987       5.74156598      -0.00466732      -0.08374186      -0.42347740
Pt       8.54656396       6.00124987       5.74156598      -0.00642519      -0.08181739      -0.42712271
Pt      11.31842254       6.00124987       5.74156598      -0.00590274      -0.08232415      -0.42344989
Pt       1.61691751       2.00041662       8.00477904       0.00783801       0.08363516       0.43208906
Pt       4.38877609       2.00041662       8.00477904       0.00643239       0.08207296       0.42388852
Pt       7.16063467       2.00041662       8.00477904       0.01018414       0.08436689       0.42511494
Pt       3.00284680       4.40091657       8.00477904       0.00661571       0.08684492       0.42632079
Pt       5.77470538       4.40091657       8.00477904       0.00704662       0.08975387       0.41687892
Pt       8.54656396       4.40091657       8.00477904       0.01057032       0.08778080       0.42861601
Pt       4.38877609       6.80141652       8.00477904       0.00800024       0.08765096       0.43066312
Pt       7.16063467       6.80141652       8.00477904       0.00702143       0.08526421       0.42861190
Pt       9.93249325       6.80141652       8.00477904       0.00903049       0.08377271       0.43215308
Pt       1.63717441       0.70103869      10.36520711      -0.00155115      -0.00059958      -0.00375561
Pt       4.40908341       0.70119530      10.36455893      -0.00251994      -0.00151181      -0.00053068
Pt       7.18146720       0.70095689      10.36414738      -0.00193655      -0.00029388      -0.00015555
Pt       3.02251536       3.10141358      10.36393265      -0.00038849      -0.00167019       0.00217490
Pt       5.79525350       3.10169659      10.36221027      -0.00101739      -0.00112923       0.00410991
Pt       8.56746008       3.10160486      10.36425647      -0.00406183      -0.00135009      -0.00040161
Pt       4.40861161       5.50146124      10.36372080      -0.00050445      -0.00021854       0.00093794
Pt       7.18148572       5.50290140      10.36459027      -0.00236850      -0.00004731      -0.00219495
Pt       9.95270126       5.50246887      10.36508728      -0.00271226      -0.00059932      -0.00247006
C        1.63705743       1.43342940      12.42425461      -0.00023680      -0.00154189      -0.00376358
C        3.02336026       2.26058655      12.43856792      -0.00132309      -0.00120713       0.00059830
C        3.02289761       3.83350278      12.42163240      -0.00193758       0.00008382      -0.00295523
C        4.40828862       4.66194955      12.42987504      -0.00128221       0.00087906      -0.00230217
C        4.40898598       6.23417128      12.42340132      -0.00104078       0.00064638      -0.00140511
C        5.79507418       7.06116195      12.43887806      -0.00075179      -0.00051936       0.00033759
C        4.40891942       1.43283928      12.42316527      -0.00168870      -0.00132669      -0.00176429
C        5.79527850       2.25835417      12.43381789      -0.00109452      -0.00132900       0.00189979
C        5.79503429       3.83416276      12.41448922      -0.00023963      -0.00015452      -0.00271329
C        7.18203908       4.66025556      12.43652398       0.00014861      -0.00025017       0.00247083
C        7.18121435       6.23446232      12.42402433      -0.00084589      -0.00102330      -0.00219109
C        8.56741767       7.06044007      12.43947447      -0.00177303      -0.00069934       0.00010490
C        7.18173832       1.43209640      12.42110563      -0.00051705      -0.00132952      -0.00185942
C        8.56717766       2.25995121      12.43702992       0.00025171      -0.00098448      -0.00009616
C        8.56731922       3.83233101      12.42270430       0.00016532      -0.00035995      -0.00092405
C        9.95332420       4.65979009      12.43857126      -0.00124853      -0.00033939       0.00131640
C        9.95322199       6.23346801      12.42441539      -0.00132232      -0.00081735      -0.00451717
C       11.33936956       7.06069759      12.43887453      -0.00075539      -0.00049648       0.00099502
C        5.88852786       3.43053027      15.57037493       0.00060215      -0.00114234      -0.00361394
O        6.93338883       2.89485889      15.54634644       0.00792851       0.00126961       0.00436059
O        4.84371711       3.96664810      15.58595598       0.00217027      -0.00734538       0.00190519
