48
Lattice="8.315575849598094 0.0 0.0 4.157787924799047 7.20149657514819 0.0 0.0 0.0 19.999999365264614" Properties=species:S:1:pos:R:3:forces:R:3 energy=-281406.8289846279 free_energy=-281406.8289846279 pbc="T T T"
Pt       3.00284680       1.20024997       7.73678694       0.00151387      -0.08479293      -0.51423323
Pt       5.77470538       1.20024997       7.73678694      -0.00045046      -0.08482506      -0.51433967
Pt       8.54656396       1.20024997       7.73678694      -0.00184142      -0.08456590      -0.51432862
Pt       4.38877609       3.60074992       7.73678694      -0.00008459      -0.08395037      -0.51407177
Pt       7.16063467       3.60074992       7.73678694      -0.00034067      -0.08369506      -0.51380848
Pt       9.93249325       3.60074992       7.73678694      -0.00034633      -0.08274710      -0.51400672
Pt       5.77470538       6.00124987       7.73678694       0.00010696      -0.08585145      -0.51431705
Pt       8.54656396       6.00124987       7.73678694      -0.00041472      -0.08290805      -0.51692518
Pt      11.31842254       6.00124987       7.73678694      -0.00044403      -0.08302324      -0.51714963
Pt       1.61691751       2.00041662      10.00000000       0.00119273       0.08849891       0.52350746
Pt       4.38877609       2.00041662      10.00000000      -0.00006042       0.08608028       0.52381548
Pt       7.16063467       2.00041662      10.00000000       0.00240218       0.08658756       0.52368255
Pt       3.00284680       4.40091657      10.00000000       0.00018563       0.08904862       0.51924328
Pt       5.77470538       4.40091657      10.00000000       0.00158920       0.08827471       0.51698791
Pt       8.54656396       4.40091657      10.00000000       0.00177406       0.08926510       0.51961378
Pt       4.38877609       6.80141652      10.00000000       0.00130638       0.09115898       0.51833208
Pt       7.16063467       6.80141652      10.00000000       0.00144727       0.09094609       0.51844418
Pt       9.93249325       6.80141652      10.00000000       0.00079344       0.09371285       0.51860462
Pt       1.61917071       0.71023173      12.36649471       0.00258859       0.00094154      -0.00145396
Pt       4.39060767       0.71029876      12.36715270       0.00750042      -0.00034761      -0.01714077
Pt       7.16336294       0.71033627      12.36710298      -0.00355918      -0.00033913      -0.01653374
Pt       3.00491556       3.11112343      12.36614163       0.00454905      -0.00583486      -0.00373890
Pt       5.77697481       3.11112808      12.36589523       0.00203606      -0.00010516      -0.00589683
Pt       8.54902454       3.11114259      12.36620473      -0.00019926      -0.00569037      -0.00458659
Pt       4.39103981       5.51180147      12.36553957       0.00077930      -0.00542091       0.00442770
Pt       7.16293824       5.51182868      12.36560008       0.00352884      -0.00570502       0.00350236
Pt       9.93475725       5.51195109      12.36507306       0.00213684      -0.00915261       0.01229784
C        1.62006565       1.44085353      14.42380641      -0.00158226      -0.00604955       0.00200443
C        3.00615636       2.26849336      14.43798825      -0.00272614      -0.00629509       0.00198386
C        3.00601380       3.84000902      14.42365576      -0.00102073      -0.00104464       0.00368619
C        4.39164104       4.66900898      14.43928118      -0.00233739      -0.00988461      -0.00696923
C        4.39160562       6.24102726      14.42434832       0.00324910       0.00164756      -0.00007328
C        5.77796855       7.06931382      14.43963661      -0.00192139       0.00051653      -0.00659565
C        4.39164484       1.43938873      14.42282129      -0.00547054       0.00300459      -0.00195301
C        5.77793856       2.26636060      14.43635012      -0.00149612       0.00853169       0.01239375
C        5.77785257       3.84266852      14.42077968      -0.00147633      -0.01983349       0.01478616
C        7.16428945       4.66893066      14.43931435      -0.00145087      -0.00948069      -0.00722429
C        7.16409611       6.24095423      14.42428485      -0.00567648       0.00198258       0.00057618
C        8.54993738       7.06772076      14.43944885      -0.00479974       0.00538003       0.00190313
C        7.16402316       1.43934517      14.42269920       0.00323111       0.00346225      -0.00158123
C        8.54975513       2.26847798      14.43791315      -0.00111123      -0.00637145       0.00256827
C        8.54966278       3.83994890      14.42371071      -0.00157480      -0.00049802       0.00337483
C        9.93576618       4.66715907      14.43934170      -0.00206460       0.00388391      -0.00126113
C        9.93565457       6.23941579      14.42454688      -0.00110840       0.00540394      -0.00778376
C       11.32163061       7.06775948      14.43951020       0.00038849       0.00510955       0.00126575
C        5.77137676       2.85377406      17.70401926       0.01810108       0.00206280       0.00055176
O        6.94562306       2.85046138      17.69409185      -0.01260123       0.00150898      -0.01419455
O        4.59733859       2.85736864      17.71011947      -0.00424206       0.00140305      -0.01738580
