48
Lattice="8.315575849598094 0.0 0.0 4.157787924799047 7.20149657514819 0.0 0.0 0.0 19.999999365264614" Properties=species:S:1:pos:R:3:forces:R:3 energy=-280419.35826130316 free_energy=-280419.35826130316 pbc="T T T"
Pt       3.00284680       1.20024997       7.73678695      -0.00659976      -0.07438176      -0.42801720
Pt       5.77470538       1.20024997       7.73678695      -0.00671444      -0.07308284      -0.43014376
Pt       8.54656396       1.20024997       7.73678695      -0.00663113      -0.07309312      -0.43012345
Pt       4.38877609       3.60074992       7.73678695      -0.00665684      -0.07283370      -0.42914771
Pt       7.16063467       3.60074992       7.73678695      -0.00665504      -0.07329701      -0.42771021
Pt       9.93249325       3.60074992       7.73678695      -0.00669387      -0.07271800      -0.42901453
Pt       5.77470538       6.00124987       7.73678695      -0.00759607      -0.07195824      -0.43131593
Pt       8.54656396       6.00124987       7.73678695      -0.00574539      -0.07188779      -0.43160260
Pt      11.31842254       6.00124987       7.73678695      -0.00670621      -0.07277867      -0.43049163
Pt       1.61691751       2.00041662      10.00000000       0.01101563       0.07069891       0.42830311
Pt       4.38877609       2.00041662      10.00000000       0.00855586       0.07087040       0.42813316
Pt       7.16063467       2.00041662      10.00000000       0.00993886       0.07234467       0.42570886
Pt       3.00284680       4.40091657      10.00000000       0.00969614       0.07065880       0.43039676
Pt       5.77470538       4.40091657      10.00000000       0.00936781       0.07295557       0.42696845
Pt       8.54656396       4.40091657      10.00000000       0.01019957       0.07310366       0.42688540
Pt       4.38877609       6.80141652      10.00000000       0.01061763       0.06969566       0.43010108
Pt       7.16063467       6.80141652      10.00000000       0.00978793       0.07077681       0.42834167
Pt       9.93249325       6.80141652      10.00000000       0.00894435       0.06983245       0.42989462
Pt       1.64044060       0.66539791      12.34864962      -0.00156143       0.00167764       0.00121433
Pt       4.41215978       0.66544952      12.34859903      -0.00266778       0.00149510       0.00214739
Pt       7.18405094       0.66503953      12.34800827      -0.00145576       0.00050265       0.00178537
Pt       3.02627837       3.06568863      12.34859145      -0.00180440       0.00192396       0.00277731
Pt       5.79816346       3.06583930      12.34779909      -0.00193990       0.00000668       0.00132720
Pt       8.57001680       3.06582370      12.34777489      -0.00176455      -0.00038644       0.00081915
Pt       4.41209822       5.46611859      12.34875968      -0.00121253       0.00140536      -0.00042320
Pt       7.18407028       5.46712773      12.34827293      -0.00204814      -0.00085001       0.00318740
Pt       9.95596883       5.46616161      12.34870556      -0.00206280       0.00089140       0.00035661
C        1.64088805       1.40117688      14.39750342      -0.00098088       0.00035404      -0.00267343
C        3.02675722       2.22867745      14.41065935      -0.00082532       0.00021289      -0.00129147
C        3.02649950       3.80082259      14.39827861      -0.00082018       0.00104747      -0.00046897
C        4.41241618       4.62848946      14.41013316       0.00056899       0.00119556      -0.00110583
C        4.41237515       6.20153881      14.39764740       0.00017355       0.00005811       0.00113977
C        5.79852824       7.02992190      14.41017554      -0.00046871      -0.00073096       0.00016789
C        4.41206895       1.40111515      14.39753643       0.00005554       0.00059727      -0.00293363
C        5.79778666       2.22860907      14.40638886       0.00031419       0.00086569      -0.00083638
C        5.79771888       3.80133450      14.39539295       0.00052990       0.00158123       0.00183371
C        7.18454840       4.62884328      14.41049393      -0.00042629       0.00074176      -0.00294263
C        7.18426998       6.20239026      14.39733571      -0.00042886       0.00095825       0.00247032
C        8.57050407       7.02988971      14.41023897      -0.00052990      -0.00074716      -0.00018692
C        7.18429500       1.40075869      14.39568897      -0.00041420       0.00047565       0.00027048
C        8.57130976       2.22869771      14.40621600      -0.00167739       0.00090169      -0.00053222
C        8.57084328       3.80127038      14.39528850      -0.00131846       0.00158329       0.00186508
C        9.95663734       4.62846784      14.41012047      -0.00205457       0.00104155      -0.00138865
C        9.95614420       6.20149610      14.39767307      -0.00134469       0.00031702       0.00079858
C       11.34231839       7.02869443      14.41019304      -0.00073842      -0.00095131       0.00105415
C        7.15583992       2.80200367      17.74665324       0.00439350      -0.00041832       0.00084795
O        8.33009675       2.80928898      17.73568576      -0.00881683      -0.00025685       0.00185994
O        5.98161373       2.79474971      17.74796567       0.00320154      -0.00039981       0.00169436
