101
Lattice="17.265850017958673 -0.00010359510010775204 0.0 -8.633011338229426 14.952692293502695 0.0 -0.0 0.0 15.000000722551901" Properties=species:S:1:pos:R:3:forces:R:3 energy=-26794.53283939641 free_energy=-26794.53283939641 pbc="T T T"
C        1.20916066       0.66239192       5.00762867       0.00565231       0.00362423       0.00246055
C       -0.02409232       1.37445025       5.00616635       0.00502985       0.00340877       0.00033656
C       -0.02411667       2.79872940       5.00248870       0.00511598      -0.00156760       0.00623698
C       -1.25726732       3.51102233       5.00152649       0.00363991       0.00010387       0.00351238
C       -1.25715438       4.93523207       4.99974851       0.00037538      -0.00310178       0.00102458
C       -2.49048493       5.64723547       5.00050001       0.00416493       0.00184811      -0.00402301
C       -2.49025863       7.07127961       4.99893072      -0.00056487      -0.00125573       0.00267626
C       -3.72364263       7.78298644       5.00025705       0.00163959      -0.00028745       0.00478148
C       -3.72388563       9.20702786       5.00096450      -0.00004602       0.00327559       0.00418807
C       -4.95722017       9.91915962       5.00535347       0.00357769       0.00179103       0.00048388
C       -4.95708981      11.34301754       5.00710044       0.00296860       0.00426520      -0.00146604
C       -6.19031829      12.05491124       5.01090000       0.00465524      -0.00137863      -0.00407160
C       -6.19048525      13.47892302       5.01110025       0.00252945       0.00408188      -0.00468044
C       -7.42376554      14.19106836       5.01090649       0.00142696       0.00771948      -0.00567391
C        3.67610880       0.66261315       5.00685582       0.00036741       0.00381346      -0.00418344
C        2.44259185       1.37431631       5.00622469       0.00165785       0.00407134       0.00057978
C        2.44280856       2.79848377       5.00399643       0.00238547       0.00514118      -0.00167045
C        1.20944775       3.51084878       5.00190219       0.00147247       0.00328844       0.00100839
C        1.20959860       4.93520879       4.99922372      -0.00271766      -0.00130201       0.00381449
C       -0.02366285       5.64741717       4.99792572      -0.00192858      -0.00321491       0.00124647
C       -0.02362840       7.07161719       4.99622886       0.00018538      -0.00160977       0.00689081
C       -1.25700746       7.78347638       4.99716699      -0.00307555      -0.00501982       0.00184914
C       -1.25693807       9.20742455       4.99708251       0.00039775      -0.00498408       0.00424798
C       -2.49040625       9.91936317       4.99919728       0.00283644      -0.00261276       0.00061578
C       -2.49052525      11.34345613       5.00046088       0.00576724       0.00066900       0.00049854
C       -3.72387116      12.05504315       5.00421434       0.00099347       0.00160540       0.00235076
C       -3.72345346      13.47899115       5.00555048       0.00015838       0.00265184      -0.00366948
C       -4.95687510      14.19108916       5.00885727       0.00187511       0.00385023      -0.00771768
C        6.14324230       0.66274796       5.00163637       0.00026122       0.00443541      -0.00315037
C        4.90976492       1.37458501       5.00360430      -0.00241658       0.00125958       0.00313675
C        4.90988140       2.79906029       5.00257770      -0.00476683      -0.00214121       0.00040572
C        3.67623745       3.51081834       5.00327382      -0.00501622       0.00083895       0.00085901
C        3.67620304       4.93523394       5.00118628       0.00077853      -0.00456679      -0.00243586
C        2.44286050       5.64767368       4.99811942      -0.00250965      -0.00132515      -0.00066463
C        2.44300843       7.07198011       4.99337045      -0.00105981      -0.00344991       0.00901275
C        1.20969214       7.78357579       4.99526579      -0.00128452      -0.00460022       0.00349799
C        1.20976566       9.20749525       4.99694143      -0.00077287      -0.00289840       0.00330412
C       -0.02367419       9.91955990       4.99703063      -0.00094000      -0.00332829       0.00208362
C       -0.02339347      11.34340175       4.99766733      -0.00066026       0.00185377       0.00367693
C       -1.25680726      12.05516569       4.99863712      -0.00216718      -0.00441227       0.00106392
C       -1.25664440      13.47927859       4.99867839      -0.00515378       0.00169384       0.00299199
C       -2.49016619      14.19138107       5.00183066      -0.00137863       0.00116445       0.00038489
C        8.60965298       0.66283778       4.99748109      -0.00702503      -0.00080733      -0.00013447
C        7.37647887       1.37499295       4.99874926      -0.00367385      -0.00072659       0.00462079
C        7.37656428       2.79910203       4.99925277      -0.00687899      -0.00548545       0.00270249
C        6.14334698       3.51140783       5.00068790      -0.00123490      -0.00328227       0.00983447
C        6.14305409       4.93553486       5.00148083      -0.00224792      -0.00694558      -0.00140536
C        4.90967785       5.64751574       4.99959344      -0.00062452      -0.00637479       0.00153726
C        4.90907236       7.07199135       4.99606455      -0.00234279      -0.00725617       0.00289172
C        3.67580126       7.78402651       4.99231237      -0.00271329      -0.00638148      -0.00229137
C        3.67601290       9.20737220       4.99949056      -0.00497226      -0.00497483      -0.00466989
C        2.44315271       9.91939473       5.00006069      -0.00383274      -0.00067363      -0.00184297
C        2.44307250      11.34312755       5.00231532      -0.00562480       0.00258962       0.00212193
C        1.20995880      12.05502158       4.99924790      -0.00402532       0.00270711       0.00602718
C        1.20997462      13.47884787       4.99922928      -0.00443387       0.00300819      -0.00064843
C       -0.02309064      14.19133294       4.99721329      -0.00255722       0.00315397       0.01018465
C       11.07621686       0.66250795       5.00031441      -0.00242352       0.00370804       0.00290432
C        9.84297440       1.37462074       4.99786791      -0.00411608      -0.00064380       0.00980773
C        9.84285025       2.79900354       4.99949131      -0.00647404      -0.00182677       0.00012367
C        8.60949143       3.51130925       4.99935155      -0.00517512      -0.00261995       0.00692861
C        8.60947950       4.93535565       5.00173527      -0.00063995      -0.00404152       0.00374995
C        7.37618146       5.64744614       5.00276305      -0.00380292      -0.00317943      -0.00316194
C        7.37608914       7.07139888       5.00519555       0.00156143      -0.00364351      -0.00151592
C        6.14288823       7.78357650       5.00379100      -0.00115185      -0.00549882      -0.00416159
C        6.14285171       9.20772212       5.01016140      -0.00076825      -0.00618839      -0.00182960
C        4.90915680       9.91946730       5.00823451      -0.00415259      -0.00390011      -0.00542066
C        4.90958900      11.34339055       5.01100436      -0.00509336       0.00157891      -0.00127038
C        3.67622219      12.05489605       5.00687041      -0.00237570      -0.00022060      -0.00408163
C        3.67628576      13.47889714       5.00582063      -0.00205303       0.00430223       0.00231142
C        2.44300288      14.19111576       5.00186271      -0.00479742       0.00255722      -0.00422998
C       13.54209643       0.66240456       5.00580159      -0.00049957       0.00154652       0.00060832
C       12.30911300       1.37450309       5.00255072       0.00109426       0.00375638       0.00048054
C       12.30890766       2.79851492       5.00218287       0.00191110       0.00017741       0.00557081
C       11.07599415       3.51090806       5.00191905       0.00093202       0.00254873      -0.00929582
C       11.07543132       4.93499008       5.00239113       0.00025531      -0.00211422       0.00499360
C        9.84238033       5.64729867       5.00301845       0.00133492      -0.00047617       0.00125444
C        9.84225477       7.07104683       5.00557268       0.00000848      -0.00091866       0.00359029
C        8.60915110       7.78308318       5.00793832       0.00457682      -0.00252122       0.00102741
C        8.60887854       9.20701009       5.01158588       0.00112383       0.00046845       0.00084409
C        7.37611635       9.91964943       5.01407054       0.00097676      -0.00315089      -0.00487430
C        7.37585992      11.34326529       5.01545380      -0.00086955       0.00065692      -0.00714407
C        6.14276199      12.05498891       5.01401097      -0.00174449       0.00172521      -0.00668461
C        6.14231926      13.47878065       5.01157978       0.00206948       0.00397055       0.00037564
C        4.90936545      14.19107464       5.00819107       0.00194504       0.00475397      -0.00446086
C       16.00852614       0.66234966       5.00859733       0.00371576       0.00783209      -0.00900246
C       14.77523998       1.37431956       5.00645851       0.00279942       0.00345839      -0.00475551
C       14.77522912       2.79867299       5.00343106       0.00627863       0.00087623       0.00265441
C       13.54187656       3.51078874       5.00300924       0.00435519       0.00058415      -0.00599787
C       13.54223501       4.93491156       5.00195412       0.00132258      -0.00085978       0.00312183
C       12.30878752       5.64681097       5.00274387       0.00246415       0.00282333      -0.00670492
C       12.30869372       7.07102718       5.00243229       0.00353064       0.00460716       0.00475937
C       11.07524171       7.78293373       5.00557910       0.00347022      -0.00108655      -0.00194992
C       11.07551840       9.20687692       5.00817024       0.00530804      -0.00108115      -0.00901712
C        9.84218587       9.91899392       5.01141265       0.00337509       0.00127424      -0.00104027
C        9.84214703      11.34312988       5.01261348       0.00257085       0.00266341      -0.00179026
C        8.60885683      12.05492365       5.01414577       0.00350827       0.00187022      -0.00306835
C        8.60888262      13.47884053       5.01227803       0.00466012       0.00344039       0.00121228
C        7.37544824      14.19094511       5.01125496       0.00490669       0.00343294      -0.00101044
C        5.03369430       7.16415460       8.33358588      -0.00150461       0.00105338      -0.00478405
O        6.05754900       6.58858149       8.37772615      -0.00064818      -0.00168124      -0.01627997
O        4.00957890       7.73989562       8.29556392       0.00696872      -0.00196458       0.00247289
