48
Lattice="8.315575849598094 0.0 0.0 4.157787924799047 7.20149657514819 0.0 0.0 0.0 19.999999365264614" Properties=species:S:1:pos:R:3:forces:R:3 energy=-281406.8182364034 free_energy=-281406.8182364034 pbc="T T T"
Pt       3.00284680       1.20024997       5.74156598       0.00385434      -0.08374160      -0.51245634
Pt       5.77470538       1.20024997       5.74156598       0.00359312      -0.08154485      -0.51421549
Pt       8.54656396       1.20024997       5.74156598       0.00145422      -0.08030944      -0.51579029
Pt       4.38877609       3.60074992       5.74156598       0.00477171      -0.08195906      -0.51235015
Pt       7.16063467       3.60074992       5.74156598       0.00278091      -0.08154125      -0.51338965
Pt       9.93249325       3.60074992       5.74156598       0.00182086      -0.08175697      -0.51286463
Pt       5.77470538       6.00124987       5.74156598       0.00415670      -0.08253524      -0.51015135
Pt       8.54656396       6.00124987       5.74156598       0.00261944      -0.08201742      -0.51529690
Pt      11.31842254       6.00124987       5.74156598       0.00215536      -0.08166106      -0.51238898
Pt       1.61691751       2.00041662       8.00477904      -0.00425106       0.08205239       0.50327005
Pt       4.38877609       2.00041662       8.00477904      -0.00483984       0.07952114       0.50569408
Pt       7.16063467       2.00041662       8.00477904      -0.00262175       0.08150474       0.50538529
Pt       3.00284680       4.40091657       8.00477904      -0.00465344       0.08811325       0.49911874
Pt       5.77470538       4.40091657       8.00477904      -0.00494140       0.08146026       0.50729125
Pt       8.54656396       4.40091657       8.00477904      -0.00200752       0.08992459       0.49642243
Pt       4.38877609       6.80141652       8.00477904      -0.00327276       0.08426534       0.50745426
Pt       7.16063467       6.80141652       8.00477904      -0.00589760       0.08249256       0.50489344
Pt       9.93249325       6.80141652       8.00477904      -0.00312209       0.08188064       0.50932834
Pt       1.60643387       0.70079017      10.36774023      -0.00018306       0.00272203       0.00503885
Pt       4.37685283       0.69838624      10.36789148       0.01112645       0.01061171       0.00486530
Pt       7.15160725       0.69872995      10.36760057      -0.00809152       0.00998591       0.00129301
Pt       2.99266172       3.10119963      10.36589022      -0.00295420      -0.00318200       0.02330294
Pt       5.76410326       3.09735315      10.36746631       0.00106135       0.02432135      -0.00420735
Pt       8.53597729       3.10182069      10.36553756       0.00443541      -0.00868339       0.02401128
Pt       4.37892358       5.50048901      10.36709247      -0.00516020      -0.00354015       0.00415310
Pt       7.14862752       5.50070559      10.36729215       0.00950228       0.00384920       0.00775496
Pt       9.92150304       5.50184819      10.36840582       0.00480359      -0.00224637      -0.00444312
C        1.60637059       1.43249957      12.42408619       0.00170670      -0.00323188       0.00622207
C        2.99249528       2.26039677      12.43916577      -0.00007508      -0.00354658       0.00566954
C        2.99255646       3.83276826      12.42350266      -0.00077776      -0.00487790       0.00145164
C        4.37730804       4.66121468      12.43556133       0.00794368      -0.00356072      -0.00945035
C        4.37839338       6.23273748      12.42520900       0.00218081       0.00128195      -0.00220729
C        5.76391615       7.06061978      12.44028687       0.00227774       0.00133106      -0.00429091
C        4.37786112       1.43153438      12.42659248       0.00320334       0.00405334      -0.01548087
C        5.76411222       2.25764052      12.43848680       0.00386694       0.00731350      -0.00073688
C        5.76381934       3.83309254      12.41987871       0.00646324      -0.00634265       0.01023865
C        7.15078094       4.66015179      12.43940155      -0.00554304      -0.00950614      -0.00865022
C        7.15012757       6.23310838      12.42534185      -0.00276625      -0.00089937       0.00104541
C        8.53579282       7.06035512      12.43974073       0.00255979      -0.00218158       0.00616499
C        7.15157098       1.43137499      12.42354558      -0.00801156       0.00041266       0.00624598
C        8.53663428       2.26012642      12.43772698      -0.00703865      -0.00380240       0.00473803
C        8.53697118       3.83168320      12.42276614      -0.00832112      -0.00440121       0.01265651
C        9.92267595       4.66004485      12.43862419      -0.00427652      -0.00517486       0.00330104
C        9.92251521       6.23280567      12.42499951      -0.00034530      -0.00647301      -0.00045971
C       11.30897928       7.06065353      12.43880531      -0.00528979      -0.00258602       0.00952208
C        5.92357624       3.53365698      15.68634349      -0.00613671       0.00243535      -0.00689416
O        6.96770858       2.99787955      15.65639634       0.01827386      -0.00772359      -0.00074845
O        4.87946891       4.06992140      15.70919860      -0.00603309      -0.00050548      -0.00006119
