101
Lattice="17.265850017958673 -0.00010359510010775204 0.0 -8.633011338229426 14.952692293502695 0.0 -0.0 0.0 15.000000722551901" Properties=species:S:1:pos:R:3:forces:R:3 energy=-25938.591369837442 free_energy=-25938.591369837442 pbc="T T T"
C        1.20508632       0.66345548       5.01531514       0.00542837      -0.00130226      -0.00146604
C       -0.02816598       1.37546326       5.01520147      -0.00542760       0.00194735      -0.00161697
C       -0.02836329       2.79959446       5.00794787       0.01002679      -0.00492161      -0.00054199
C       -1.26155239       3.51147805       4.99976185      -0.00236207       0.01080069       0.00183165
C       -1.26149617       4.93573737       4.99783375       0.00364865      -0.00706822       0.00909348
C       -2.49484995       5.64762122       4.99565694       0.00052193       0.00047797      -0.00143776
C       -2.49480336       7.07164234       4.99988405      -0.00429966       0.01076469      -0.00122153
C       -3.72821497       7.78395126       5.00287031       0.00867156      -0.01153808      -0.01100201
C       -3.72792659       9.20789790       5.00187363      -0.00499334       0.00771125       0.00055536
C       -4.96123297       9.92007177       5.00501724      -0.00033527      -0.01105806      -0.00145422
C       -4.96131696      11.34394446       5.00024555       0.00065023       0.00435442       0.00158457
C       -6.19457579      12.05599803       5.00851435      -0.00204377      -0.00318277      -0.00077622
C       -6.19465741      13.47994905       5.00627119       0.00420504       0.00490721       0.01743722
C       -7.42780968      14.19203128       5.01851132      -0.00601792       0.00137785      -0.01541299
C        3.67165704       0.66330211       5.00003011       0.00796322       0.00679851       0.00197255
C        2.43851954       1.37539664       5.00819484      -0.00833680       0.00271663      -0.00089012
C        2.43829220       2.79958962       5.00926393       0.01360396      -0.00259579       0.00185017
C        1.20518164       3.51150007       5.00914359      -0.01094570       0.00967326       0.00211525
C        1.20512580       4.93578950       5.00865710       0.00949328      -0.00839619      -0.00483059
C       -0.02798559       5.64771520       5.00386295      -0.01121721       0.00710164       0.00144445
C       -0.02813294       7.07193489       5.00442666       0.00041858      -0.00306784       0.00054970
C       -1.26154916       7.78397383       5.00179428       0.00272588      -0.01107786      -0.00227388
C       -1.26140079       9.20785940       5.00027545      -0.00307093       0.01051890       0.00268577
C       -2.49472582       9.92014911       4.99785528       0.00436265      -0.01665586      -0.00245592
C       -2.49462459      11.34390814       4.99284063      -0.00450817       0.00961747       0.00404409
C       -3.72804905      12.05598959       4.99111207       0.00179026      -0.01090791       0.01918840
C       -3.72818550      13.47973188       4.99043373       0.00738729       0.01454756       0.00186893
C       -4.96126733      14.19196732       4.99646483      -0.00764492      -0.00239215       0.00895875
C        6.13824821       0.66330821       4.99599704      -0.00444621       0.00385151      -0.00113360
C        4.90500233       1.37555125       4.99812217      -0.00394716      -0.00302465       0.00907342
C        4.90493752       2.79976099       5.00395260       0.00493395      -0.00482236       0.00063943
C        3.67174949       3.51172545       5.00856594      -0.00751019       0.00301899      -0.00461616
C        3.67181387       4.93605032       5.00972276       0.00773414      -0.01499596      -0.00285187
C        2.43865668       5.64787736       5.01020450      -0.01614113       0.00348487      -0.00371473
C        2.43829638       7.07202582       5.00787207       0.00680880      -0.01054307       0.00529210
C        1.20527974       7.78397751       5.00686474      -0.01221197       0.00050085      -0.00406131
C        1.20527363       9.20790034       5.00520811      -0.00247752       0.00750119      -0.00193398
C       -0.02812580       9.91998925       5.00192031       0.00563303      -0.01039368       0.00402558
C       -0.02787664      11.34382494       5.00127378      -0.01169826       0.00872247       0.00477634
C       -1.26137910      12.05594077       4.99557492       0.00743743      -0.00859957      -0.00281279
C       -1.26139565      13.47979200       4.99576131      -0.00799279       0.01177180       0.00445341
C       -2.49488410      14.19192927       4.99173498       0.00628763      -0.00451974       0.00663859
C        8.60500645       0.66332092       5.00353489      -0.01781774       0.00580529      -0.01137610
C        7.37136396       1.37543280       5.00045059       0.01622649      -0.00076876      -0.00113900
C        7.37168322       2.79961931       5.00217329      -0.01575752      -0.00253459      -0.00239010
C        6.13824985       3.51180454       5.00427243       0.00356818       0.00011081       0.00053505
C        6.13825678       4.93599214       5.00573577       0.00038849      -0.01127249      -0.00297939
C        4.90518984       5.64780926       5.00628899      -0.00677691       0.00251917       0.00488175
C        4.90512849       7.07193056       5.00192635       0.00900400      -0.01276964      -0.00377592
C        3.67186432       7.78405392       5.00360804      -0.01313499       0.00763181      -0.00204454
C        3.67124210       9.20818149       5.00196642       0.00717286      -0.00364840      -0.00111869
C        2.43843803       9.91990509       5.00546259      -0.00524145       0.00096314       0.00876540
C        2.43846257      11.34368833       5.01068867      -0.00141745       0.00752613      -0.00143596
C        1.20525839      12.05587881       5.00806730       0.00447783      -0.00534481      -0.00078393
C        1.20528253      13.47983799       5.00952931      -0.01216775       0.00768863      -0.00812983
C       -0.02825190      14.19196271       5.00354848       0.01240172      -0.00398547      -0.00409885
C       11.07141339       0.66352546       5.00554739      -0.00836997      -0.00323291      -0.00148327
C        9.83800287       1.37558935       5.00267350       0.01020394      -0.00230345       0.00019206
C        9.83821776       2.79969416       4.99858395      -0.01792290      -0.00341442      -0.00252071
C        8.60465259       3.51167372       5.00063612       0.01379680       0.00297708       0.00268655
C        8.60472149       4.93581326       5.00164922      -0.01594058      -0.00202269       0.00468532
C        7.37124789       5.64787431       5.00407887       0.01283829       0.00213864      -0.00178512
C        7.37135795       7.07173972       5.00375291      -0.00088703      -0.00669901       0.00763900
C        6.13848471       7.78336140       5.00017406      -0.00270377       0.00910119       0.00010593
C        6.13797567       9.20756008       5.00662579       0.00569705      -0.00281459       0.00888239
C        4.90451194       9.91982171       5.00614873      -0.00255259       0.00818434       0.00710627
C        4.90453822      11.34385689       5.01687836       0.00800153       0.00107472       0.00302310
C        3.67155373      12.05586904       5.01648275      -0.00417959      -0.00044609      -0.00149510
C        3.67159934      13.47997779       5.01678235      -0.00255799      -0.00089114       0.00608812
C        2.43827268      14.19212277       5.01206630       0.00719112      -0.00270017      -0.00387182
C       13.53781876       0.66336466       5.00839125       0.00027588      -0.00145987      -0.00057927
C       12.30458770       1.37543875       5.00059430       0.00107909       0.00071194       0.00149073
C       12.30455581       2.79948156       4.99161497      -0.00803907      -0.00312312       0.01839650
C       11.07119902       3.51164024       4.99344111       0.00932231       0.00095594       0.00415799
C       11.07118811       4.93568366       4.99585700      -0.01229990       0.00138582      -0.00318200
C        9.83765325       5.64783307       5.00118641       0.01642961      -0.00415953       0.00422201
C        9.83781550       7.07179861       5.00770088      -0.00847873      -0.00044532      -0.00059161
C        8.60432682       7.78359966       5.00988637       0.01005584       0.00373736      -0.00074691
C        8.60472285       9.20767329       5.01670827       0.00075128      -0.00366511      -0.00191290
C        7.37156136       9.91963813       5.01791500      -0.00298865       0.00728522       0.00265158
C        7.37127340      11.34374727       5.02603883       0.00530341       0.00053299      -0.00767706
C        6.13792156      12.05572537       5.02547378      -0.00385691       0.00326607      -0.00682165
C        6.13801880      13.47991464       5.02579494       0.00349541      -0.00074022       0.00268217
C        4.90486142      14.19198901       5.01869517      -0.00338254      -0.00032447      -0.00617116
C       16.00428234       0.66336089       5.01832595       0.00593848      -0.00147093      -0.01533380
C       14.77106448       1.37530314       5.00605331      -0.00034273       0.00479871       0.01783626
C       14.77095166       2.79945679       4.99632642       0.00509824      -0.00771280       0.00890424
C       13.53766765       3.51125492       4.99054727       0.00488381       0.01272285       0.00172161
C       13.53770400       4.93541326       4.99162972      -0.00286472       0.00260273       0.00697360
C       12.30429360       5.64758236       4.99573731       0.01159362       0.00033167       0.00452874
C       12.30444009       7.07162556       5.00324205      -0.00740452       0.00760507      -0.00431225
C       11.07096045       7.78381080       5.00931106       0.01299101      -0.00577778      -0.00870756
C       11.07138055       9.20777638       5.01182443      -0.00525533       0.00502985      -0.00399447
C        9.83801883       9.91984214       5.01697696       0.00070937      -0.00385383       0.00576853
C        9.83794418      11.34387066       5.01904354       0.00192524      -0.00016558      -0.00608323
C        8.60469188      12.05585914       5.02619696      -0.00310795       0.00064638       0.00292566
C        8.60462112      13.47995501       5.02705483       0.00579321      -0.00072454      -0.00876720
C        7.37138811      14.19194977       5.02695018      -0.00522422       0.00133980      -0.00893098
C        5.03730569       8.51426880       8.37891584      -0.00592048       0.00264361      -0.00680314
O        4.19269948       9.32968910       8.39994905       0.00085001       0.00111689      -0.02369837
O        5.88158486       7.69849369       8.36256600       0.00702451      -0.00506456      -0.01568373
