54
Lattice="8.315575849598094 0.0 0.0 4.157787924799047 7.20149657514819 0.0 0.0 0.0 23.789640116050258" Properties=species:S:1:pos:R:3:forces:R:3 energy=-372442.6030574943 free_energy=-372442.6030574943 pbc="T T T"
C        1.50902625       1.57576556      16.65372314       0.00735901       0.00638868      -0.00140254
C        2.89457483       2.40481513      16.66907997       0.00678386       0.00430274       0.00083972
C        2.89493983       3.97623153      16.65354489       0.00739758       0.00651775       0.00001311
C        4.28049607       4.80533852      16.66915379       0.00695278       0.00402660      -0.00007328
C        4.28086896       6.37678122      16.65377229       0.00753642       0.00623158      -0.00129841
C        5.66643780       7.20586639      16.66914424       0.00688259       0.00367771       0.00051628
C        4.28093504       1.57571248      16.65348472       0.00701885       0.00673269      -0.00016404
C        5.66648051       2.40481491      16.66911785       0.00669438       0.00426597       0.00061115
C        5.66684993       3.97623103      16.65351824       0.00731299       0.00647455       0.00008048
C        7.05240514       4.80535128      16.66899965       0.00669104       0.00378801       0.00083509
C        7.05279427       6.37674257      16.65343432       0.00711373       0.00648638       0.00018872
C        8.43833998       7.20583645      16.66892734       0.00655117       0.00393713       0.00137014
C        7.05274896       1.57576624      16.65372573       0.00745131       0.00639793      -0.00144522
C        8.43829101       2.40484418      16.66920537       0.00696795       0.00401503       0.00037435
C        8.43868168       3.97624671      16.65345314       0.00737290       0.00632826       0.00010053
C        9.82420875       4.80533993      16.66901452       0.00684299       0.00397493       0.00068803
C        9.82460612       6.37674103      16.65346545       0.00727082       0.00646864       0.00004037
C       11.21014614       7.20585107      16.66919509       0.00698389       0.00383891       0.00014450
Pt       1.61691751       0.40008332       7.50000000       0.00183448       0.00527282      -0.71207551
Pt       4.38877609       0.40008332       7.50000000       0.00198155       0.00505479      -0.71234958
Pt       7.16063467       0.40008332       7.50000000       0.00225511       0.00497046      -0.71220252
Pt       3.00284680       2.80058327       7.50000000       0.00172521       0.00464033      -0.71225960
Pt       5.77470538       2.80058327       7.50000000       0.00202372       0.00450971      -0.71242749
Pt       8.54656396       2.80058327       7.50000000       0.00228751       0.00446909      -0.71241206
Pt       4.38877609       5.20108322       7.50000000       0.00177458       0.00498948      -0.71225780
Pt       7.16063467       5.20108322       7.50000000       0.00208722       0.00498820      -0.71257173
Pt       9.93249325       5.20108322       7.50000000       0.00224380       0.00472672      -0.71251928
Pt       3.00284680       1.20024997       9.76321306       0.00397493      -0.01871403       0.66554419
Pt       5.77470538       1.20024997       9.76321306       0.00520057      -0.01894800       0.66544598
Pt       8.54656396       1.20024997       9.76321306       0.00516123      -0.01937249       0.66641066
Pt       4.38877609       3.60074992       9.76321306       0.00448452      -0.01861402       0.66538890
Pt       7.16063467       3.60074992       9.76321306       0.00495014      -0.01946017       0.66514387
Pt       9.93249325       3.60074992       9.76321306       0.00510287      -0.01959438       0.66524158
Pt       5.77470538       6.00124987       9.76321306       0.00425106      -0.01797561       0.66616280
Pt       8.54656396       6.00124987       9.76321306       0.00465884      -0.01845255       0.66506417
Pt      11.31842254       6.00124987       9.76321306       0.00548622      -0.01844715       0.66616974
Pt       1.60745099       1.99253718      12.12274126      -0.00757164      -0.02017570       0.02105219
Pt       4.37934852       1.99259182      12.12243555      -0.00748474      -0.01990625       0.02258046
Pt       7.15134839       1.99249722      12.12265913      -0.00914156      -0.02034591       0.02172736
Pt       2.99344181       4.39293459      12.12260200      -0.00728908      -0.01859910       0.02215880
Pt       5.76549086       4.39302340      12.12253667      -0.00998179      -0.01954630       0.02261979
Pt       8.53720640       4.39305798      12.12235481      -0.00813600      -0.01957767       0.02342146
Pt       4.37945372       6.79339501      12.12293474      -0.00910608      -0.01891098       0.02022275
Pt       7.15120797       6.79362644      12.12257727      -0.00798662      -0.01952753       0.02147797
Pt       9.92307620       6.79348357      12.12246442      -0.00728496      -0.01850037       0.02230303
Pt       1.51804626       0.84548549      14.55293880      -0.01377494       0.02274449       0.02430387
Pt       4.28989237       0.84564792      14.55262116      -0.01235518       0.02267147       0.02544287
Pt       7.06176750       0.84552320      14.55289255      -0.01244054       0.02253058       0.02435195
Pt       2.90387263       3.24600688      14.55286934      -0.01194200       0.02316641       0.02395574
Pt       5.67591473       3.24610216      14.55281853      -0.01350189       0.02248841       0.02406141
Pt       8.44769583       3.24604254      14.55266194      -0.01297044       0.02221870       0.02513562
Pt       4.28983896       5.64640226      14.55312087      -0.01268608       0.02427790       0.02300160
Pt       7.06179930       5.64657226      14.55266579      -0.01385362       0.02325589       0.02565858
Pt       9.83349062       5.64651446      14.55263053      -0.01116116       0.02383824       0.02561024
