45
Lattice="8.315575849598094 0.0 0.0 4.157787924799047 7.20149657514819 0.0 0.0 0.0 21.526423099368543" Properties=species:S:1:pos:R:3:forces:R:3 energy=-280466.81796039885 free_energy=-280466.81796039885 pbc="T T T"
C        1.47792875       1.57404154      14.28062020       0.00980464      -0.00281819       0.00213710
C        2.86274673       2.40149634      14.30401199       0.00947554      -0.00546051      -0.00078933
C        2.86396195       3.97441786      14.28101665       0.00905877      -0.00099450      -0.00105749
C        4.24887055       4.80185735      14.30412240       0.00773465      -0.00387080      -0.00006196
C        4.24999349       6.37528842      14.28129281       0.00828101      -0.00399807      -0.00002057
C        5.63464484       7.20262539      14.30480669       0.00903897      -0.00661056      -0.00394819
C        4.24991614       1.57417625      14.28069126       0.00831649      -0.00355481       0.00142105
C        5.63480901       2.40140778      14.30362557       0.00701963      -0.00454340       0.00044120
C        5.63597888       3.97443330      14.28099785       0.00716284      -0.00098293      -0.00074151
C        7.02067297       4.80184073      14.30403631       0.00748937      -0.00383711       0.00003934
C        7.02173290       6.37533839      14.28135166       0.00867285      -0.00434362      -0.00165939
C        8.40657758       7.20271167      14.30421199       0.00824424      -0.00701988       0.00004731
C        7.02188547       1.57389899      14.28021053       0.00744720      -0.00171853       0.00452308
C        8.40649195       2.40130704      14.30376287       0.00874098      -0.00418241      -0.00078907
C        8.40763518       3.97430178      14.28075207       0.00883585      -0.00027382      -0.00041806
C        9.79247735       4.80181560      14.30374361       0.00863994      -0.00358643       0.00219752
C        9.79373669       6.37527201      14.28103442       0.00769840      -0.00390499       0.00027408
C       11.17853524       7.20250440      14.30447680       0.00755904      -0.00547054      -0.00325887
Pt       3.00284680       1.20024997       7.50000000       0.03168370      -0.11592179      -0.70905523
Pt       5.77470538       1.20024997       7.50000000       0.03069923      -0.11560631      -0.70889376
Pt       8.54656396       1.20024997       7.50000000       0.03090209      -0.11630359      -0.70935991
Pt       4.38877609       3.60074992       7.50000000       0.03126024      -0.11528081      -0.70860863
Pt       7.16063467       3.60074992       7.50000000       0.03028811      -0.11532632      -0.70858138
Pt       9.93249325       3.60074992       7.50000000       0.03155695      -0.11532812      -0.70893387
Pt       5.77470538       6.00124987       7.50000000       0.03094888      -0.11590456      -0.70841991
Pt       8.54656396       6.00124987       7.50000000       0.03108824      -0.11525330      -0.70826873
Pt      11.31842254       6.00124987       7.50000000       0.03125896      -0.11583668      -0.70840706
Pt       1.61691751       2.00041662       9.76321306      -0.04011615       0.11723408       0.70438919
Pt       4.38877609       2.00041662       9.76321306      -0.04120476       0.11654142       0.70685025
Pt       7.16063467       2.00041662       9.76321306      -0.04222111       0.11787017       0.70281413
Pt       3.00284680       4.40091657       9.76321306      -0.04056892       0.11774290       0.70787124
Pt       5.77470538       4.40091657       9.76321306      -0.04169018       0.11790848       0.70774114
Pt       8.54656396       4.40091657       9.76321306      -0.04151072       0.11935498       0.70577785
Pt       4.38877609       6.80141652       9.76321306      -0.04105152       0.11386259       0.70983145
Pt       7.16063467       6.80141652       9.76321306      -0.04096693       0.11457273       0.71083880
Pt       9.93249325       6.80141652       9.76321306      -0.04200386       0.11458944       0.71026776
Pt       1.48972774       0.85807341      12.18216737      -0.00751559       0.00465395       0.00585749
Pt       4.26143767       0.85772091      12.18260490      -0.00589477       0.00690598       0.00057927
Pt       7.03342752       0.85753392      12.18180269      -0.00699597       0.00821699       0.00846330
Pt       2.87547236       3.25850996      12.18259774      -0.00540394       0.00444441       0.00139431
Pt       5.64718376       3.25821576      12.18249156      -0.00409242       0.00607834       0.00196972
Pt       8.41907162       3.25844764      12.18209016      -0.00656557       0.00506147       0.00661082
Pt       4.26167769       5.65875282      12.18328007      -0.00658999       0.00769968      -0.00306141
Pt       7.03331018       5.65892013      12.18338628      -0.00675969       0.00654526      -0.00412071
Pt       9.80531632       5.65865730      12.18332213      -0.00775445       0.00864996      -0.00388057
