48
Lattice="8.315575849598094 0.0 0.0 4.157787924799047 7.20149657514819 0.0 0.0 0.0 19.999999365264614" Properties=species:S:1:pos:R:3:forces:R:3 energy=-280419.318086416 free_energy=-280419.318086416 pbc="T T T"
Pt       3.00284680       1.20024997       4.65499339      -0.00767629      -0.07582158      -0.43441308
Pt       5.77470538       1.20024997       4.65499339      -0.00708365      -0.07701148      -0.43196076
Pt       8.54656396       1.20024997       4.65499339      -0.00738884      -0.07661090      -0.43193736
Pt       4.38877609       3.60074992       4.65499339      -0.00772822      -0.07545031      -0.43157509
Pt       7.16063467       3.60074992       4.65499339      -0.00694558      -0.07566062      -0.43108324
Pt       9.93249325       3.60074992       4.65499339      -0.00751019      -0.07540814      -0.43160775
Pt       5.77470538       6.00124987       4.65499339      -0.00673963      -0.07466869      -0.43539832
Pt       8.54656396       6.00124987       4.65499339      -0.00786089      -0.07517006      -0.43514867
Pt      11.31842254       6.00124987       4.65499339      -0.00754876      -0.07663430      -0.43223612
Pt       1.61691751       2.00041662       6.91820644       0.01030190       0.08463146       0.42841958
Pt       4.38877609       2.00041662       6.91820644       0.01203662       0.08481941       0.42856459
Pt       7.16063467       2.00041662       6.91820644       0.01160596       0.08406093       0.42546898
Pt       3.00284680       4.40091657       6.91820644       0.01089531       0.08444248       0.42930404
Pt       5.77470538       4.40091657       6.91820644       0.01114753       0.08673822       0.42825991
Pt       8.54656396       4.40091657       6.91820644       0.01152343       0.08632402       0.42806631
Pt       4.38877609       6.80141652       6.91820644       0.01049499       0.08325566       0.42977018
Pt       7.16063467       6.80141652       6.91820644       0.01116682       0.08374417       0.43091020
Pt       9.93249325       6.80141652       6.91820644       0.01218986       0.08288440       0.42951075
Pt       1.64403431       0.67980957       9.26835273       0.00028488      -0.00342599       0.00441921
Pt       4.41567430       0.67996561       9.26837754      -0.00039338      -0.00434285       0.00417239
Pt       7.18764289       0.68029741       9.26811800       0.00058698      -0.00407906       0.00528850
Pt       3.02977970       3.08065861       9.26834246       0.00038155      -0.00209699       0.00360597
Pt       5.80151030       3.08019200       9.26776141       0.00090271      -0.00398572       0.00442590
Pt       8.57380642       3.08019653       9.26779670      -0.00051294      -0.00403149       0.00448606
Pt       4.41572535       5.48105984       9.26844396       0.00149227      -0.00291897       0.00458145
Pt       7.18769637       5.48062947       9.26863779      -0.00027896      -0.00500105       0.00404460
Pt       9.95946540       5.48120497       9.26844699      -0.00038129      -0.00395410       0.00508898
C        1.64494147       1.41590529      11.31713080      -0.00210342      -0.00242918      -0.00180029
C        3.03137341       2.24320259      11.33091582      -0.00220549      -0.00278168      -0.00079678
C        3.03108581       3.81612737      11.31766078      -0.00200289      -0.00252020      -0.00204403
C        4.41754355       4.64337360      11.33073481      -0.00177895      -0.00288401      -0.00062761
C        4.41705564       6.21675506      11.31745342      -0.00167302      -0.00226514      -0.00136140
C        5.80310330       7.04408329      11.33083830      -0.00172907      -0.00276188      -0.00048722
C        4.41728450       1.41592951      11.31710208      -0.00245875      -0.00239961      -0.00206742
C        5.80350820       2.24389586      11.32772079      -0.00248446      -0.00302336      -0.00085643
C        5.80329918       3.81534916      11.31651405      -0.00234793      -0.00261378      -0.00192036
C        7.18915084       4.64268952      11.32998633      -0.00215021      -0.00300022      -0.00069240
C        7.18887964       6.21591475      11.31767465      -0.00198001      -0.00241401      -0.00175786
C        8.57518050       7.04411466      11.33091068      -0.00210291      -0.00278836      -0.00084666
C        7.18889704       1.41623336      11.31519202      -0.00235333      -0.00240912      -0.00114183
C        8.57482336       2.24384027      11.32802006      -0.00222426      -0.00298402      -0.00039544
C        8.57447865       3.81537461      11.31667280      -0.00217438      -0.00258833      -0.00153495
C        9.96073816       4.64339106      11.33079129      -0.00212399      -0.00282281      -0.00066797
C        9.96065811       6.21677665      11.31746446      -0.00200752      -0.00219418      -0.00134057
C       11.34691923       7.04502048      11.33061565      -0.00197744      -0.00276419      -0.00010207
C        7.15990909       2.81126270      15.51730572       0.00035250       0.00095491       0.00722403
O        7.15851229       2.82696609      14.34092689       0.00077467       0.00346353       0.00357949
O        7.16133659       2.79570312      16.68903717      -0.00021057      -0.00140305       0.00661056
