101
Lattice="17.265850017958673 -0.00010359510010775204 0.0 -8.633011338229426 14.952692293502695 0.0 -0.0 0.0 15.000000722551901" Properties=species:S:1:pos:R:3:forces:R:3 energy=-25938.51118809346 free_energy=-25938.51118809346 pbc="T T T"
C        1.20658297       0.66568937       5.01917407      -0.00827587       0.00807686      -0.00627838
C       -0.02671722       1.37773608       5.01916414       0.01047056      -0.00322751      -0.00638174
C       -0.02626229       2.80187484       5.00822059      -0.01153500      -0.00548802      -0.00022240
C       -1.25974133       3.51349685       5.00487395       0.00555178       0.00737958       0.00052939
C       -1.25972429       4.93766981       4.99419106      -0.00436393      -0.00775779       0.00832909
C       -2.49318505       5.64930482       4.99461607      -0.00200623       0.00373118       0.00521085
C       -2.49361294       7.07341101       4.99285692      -0.00031445       0.00431354      -0.00132283
C       -3.72698229       7.78553092       4.99735240       0.00506456      -0.00536564      -0.01165507
C       -3.72719703       9.20963058       4.99700070      -0.00681214       0.00432768      -0.00604415
C       -4.96058962       9.92179809       5.00037100       0.00536512      -0.00227183      -0.00115365
C       -4.96074205      11.34597991       5.00372870       0.00156117      -0.00252662       0.00128221
C       -6.19395207      12.05809835       5.01058065       0.00188282      -0.00596830      -0.00118836
C       -6.19378783      13.48215956       5.01631635      -0.00194890       0.00616242      -0.00628532
C       -7.42701840      14.19438268       5.02151487       0.00968843      -0.01352040      -0.00606266
C        3.67270671       0.66574726       5.00500550       0.00283618       0.00879214       0.00047488
C        2.43967902       1.37816134       5.00827881       0.00148687      -0.01240480      -0.00016147
C        2.43996000       2.80214136       4.99610395       0.00124750       0.00019772       0.00323856
C        1.20679067       3.51409750       4.99606196      -0.00000823       0.00262124       0.00325784
C        1.20691022       4.93822403       4.98320737      -0.00190724      -0.00532553       0.00004319
C       -0.02661789       5.64984708       4.98528884      -0.00078496      -0.00201189       0.00191881
C       -0.02699308       7.07377361       4.98051079       0.00377309       0.00615034      -0.00300253
C       -1.26049682       7.78566281       4.98626661       0.00167610      -0.00355044       0.00041369
C       -1.26082516       9.20965908       4.98496378      -0.00377901       0.00793828       0.00402403
C       -2.49424335       9.92190199       4.99086015       0.00918707      -0.00738909       0.00449840
C       -2.49430617      11.34592952       4.99200723      -0.00311798       0.00332084       0.00687076
C       -3.72759002      12.05809878       4.99993761       0.00232685      -0.00331364       0.00312003
C       -3.72757445      13.48215990       5.00278944       0.00704534       0.00126190      -0.00209134
C       -4.96057395      14.19450071       5.01017145      -0.00219829      -0.01066648      -0.00604441
C        6.13905953       0.66543531       4.99481731       0.00428603       0.00057901       0.00510415
C        4.90604588       1.37784250       4.99437987      -0.00416647      -0.00743126       0.00815528
C        4.90625395       2.80183710       4.98542888      -0.00161851      -0.00216821       0.00186534
C        3.67320551       3.51428624       4.98328823      -0.00292000      -0.00299251      -0.00002725
C        3.67331497       4.93835691       4.96842626      -0.00022291      -0.00664990      -0.00004577
C        2.44012104       5.65033913       4.96839987      -0.00508873      -0.00290149      -0.00005656
C        2.44014927       7.07420762       4.95769793      -0.00405823       0.00159486      -0.00081195
C        1.20634551       7.78587451       4.97043194       0.00438939      -0.00852706      -0.00662033
C        1.20584934       9.20970898       4.97361450      -0.00210959       0.00490387      -0.00788069
C       -0.02771825       9.92180109       4.98083728       0.00921740      -0.00537386       0.00151952
C       -0.02769034      11.34575160       4.98503236      -0.00787580       0.00467658       0.00551476
C       -1.26116180      12.05796663       4.98983779       0.01196411      -0.00525971       0.00489924
C       -1.26087359      13.48195621       4.99472552      -0.00680597       0.00034787       0.00102561
C       -2.49422555      14.19411608       4.99760686       0.00355558      -0.00317840       0.00202423
C        8.60596111       0.66501534       4.99742667      -0.00723097       0.00185505      -0.01174069
C        7.37257220       1.37710449       4.99300086       0.00421995       0.00216847      -0.00147967
C        7.37284155       2.80114556       4.98633736      -0.00385485      -0.00034813       0.00038592
C        6.13958597       3.51345915       4.98059709       0.00361754       0.00717466      -0.00296705
C        6.13961372       4.93762939       4.97045841      -0.00907882      -0.00078599      -0.00659796
C        4.90640117       5.65031018       4.95771738       0.00329281      -0.00276496      -0.00075899
C        4.90595794       7.07364262       4.94370210      -0.00524788       0.00267755       0.00671058
C        3.67301265       7.78550113       4.94369934       0.00448118      -0.00443875       0.00669464
C        3.67257216       9.20874468       4.95795456      -0.00295728       0.00835429       0.00918295
C        2.43929191       9.92134049       4.97137742       0.00757756      -0.00550370      -0.00499205
C        2.43907222      11.34535632       4.98358754      -0.00113617       0.00293440      -0.00401709
C        1.20561297      12.05760218       4.98809737       0.01011678      -0.00352524       0.00079704
C        1.20590696      13.48157148       4.99527118      -0.00330104       0.00427986      -0.00448683
C       -0.02754451      14.19372153       4.99714366       0.01246214      -0.00103667      -0.00850341
C       11.07281343       0.66479181       5.00023445      -0.00457502       0.00373170      -0.00110197
C        9.83936129       1.37686560       4.99693676       0.00778761      -0.00315809      -0.00606472
C        9.83973689       2.80078202       4.99075118      -0.01112028       0.00465858       0.00455677
C        8.60621371       3.51285549       4.98491769       0.00908268       0.00100556       0.00409114
C        8.60639781       4.93684622       4.98076790      -0.00851215       0.00533015       0.00157917
C        7.37294636       5.64911833       4.97359510       0.00455908       0.00059727      -0.00792697
C        7.37250662       7.07313242       4.97135739      -0.00782155       0.00450123      -0.00502651
C        6.13875436       7.78491326       4.95795695       0.00797505      -0.00004319       0.00910556
C        6.13891437       9.20874514       4.97192311      -0.00058853       0.00422278       0.00355506
C        4.90558056       9.92082349       4.97192090       0.00310846       0.00041858       0.00353604
C        4.90559565      11.34485436       4.99028968       0.00352935       0.00459328      -0.00920275
C        3.67241507      12.05730948       4.99067624       0.00224072      -0.00271637      -0.00036175
C        3.67265945      13.48135248       4.99828587       0.00262278       0.00372039       0.01093619
C        2.43940635      14.19353039       4.99823030      -0.00058827      -0.00462207       0.00264104
C       13.53958833       0.66482440       5.01041892      -0.00608246      -0.00099862      -0.00111303
C       12.30626355       1.37675351       5.00352705      -0.00274388       0.00064560       0.00146090
C       12.30640261       2.80077076       4.99974148      -0.00417624       0.00056281       0.00319202
C       11.07300113       3.51275946       4.99183791       0.00502574      -0.00121073       0.00689544
C       11.07309004       4.93672612       4.98969277      -0.01076418       0.00827278       0.00482339
C        9.83956588       5.64886222       4.98492701       0.00784341      -0.00460613       0.00549419
C        9.83940256       7.07288089       4.98802364      -0.00788403       0.00677871       0.00085335
C        8.60585925       7.78497633       4.98354994       0.00257187      -0.00012830      -0.00391656
C        8.60575555       9.20906121       4.99069516      -0.00346353       0.00078110      -0.00025917
C        7.37215747       9.92080026       4.99030973       0.00206408       0.00480719      -0.00918372
C        7.37225982      11.34500794       5.00387416      -0.00190262       0.00132026      -0.00629612
C        6.13894289      12.05705332       5.00384426       0.00228211      -0.00085721      -0.00625986
C        6.13933346      13.48121023       5.01185068      -0.00489178       0.00505273       0.00278810
C        4.90612162      14.19341519       5.00720116       0.00025942      -0.00298994       0.00584900
C       16.00620175       0.66510607       5.02148796      -0.01619898       0.00273925      -0.00620870
C       14.77278111       1.37700841       5.01622876       0.00604826       0.00157737      -0.00650052
C       14.77306560       2.80118743       5.01004948      -0.00755210      -0.00728779      -0.00618016
C       13.53966439       3.51283317       5.00261997      -0.00245463       0.00681497      -0.00223506
C       13.53956918       4.93693826       4.99742322      -0.00453543       0.00200392       0.00196227
C       12.30614715       5.64900117       4.99456812       0.00416467      -0.00608914       0.00099296
C       12.30591091       7.07300023       4.99704057      -0.00743537       0.00992086      -0.00849852
C       11.07244839       7.78513708       4.99522827       0.00536923      -0.00078624      -0.00445187
C       11.07228338       9.20937632       4.99830036      -0.00398984      -0.00343782       0.00265184
C        9.83889019       9.92131038       4.99838344       0.00175606       0.00386617       0.01083463
C        9.83881581      11.34555271       5.00734303      -0.00248523      -0.00160745       0.00565900
C        8.60542310      12.05742678       5.01192587       0.00644061      -0.00160823       0.00272280
C        8.60581621      13.48160568       5.02006914      -0.00797093       0.00436496       0.00120790
C        7.37251068      14.19365380       5.02004374       0.00758398      -0.00539906       0.00116600
C        4.33612565       7.51034765       9.20485066      -0.00123387      -0.00209339      -0.00140331
O        4.31479338       7.47340146      10.37707428      -0.00017741      -0.00033604       0.02499318
O        4.35719875       7.54684922       8.03124744       0.00321516       0.00554073      -0.00956579
