48
Lattice="8.315575849598094 0.0 0.0 4.157787924799047 7.20149657514819 0.0 0.0 0.0 19.999999365264614" Properties=species:S:1:pos:R:3:forces:R:3 energy=-281861.5057142678 free_energy=-281861.5057142678 pbc="T T T"
Pt       3.00284674       1.20025026       7.73678682      -0.00365611      -0.11418269      -0.70300003
Pt       5.77470508       1.20025026       7.73678682      -0.00585954      -0.10953465      -0.70312318
Pt       8.54656425       1.20025026       7.73678682      -0.00708545      -0.10852498      -0.70467844
Pt       4.38877633       3.60074995       7.73678682      -0.00155757      -0.11750584      -0.70203586
Pt       7.16063467       3.60074995       7.73678682      -0.00553070      -0.11654271      -0.69728549
Pt       9.93249301       3.60074995       7.73678682      -0.00897315      -0.11528158      -0.70223718
Pt       5.77470508       6.00124964       7.73678682      -0.00189387      -0.11692606      -0.71028062
Pt       8.54656425       6.00124964       7.73678682      -0.00658460      -0.11535589      -0.71005128
Pt      11.31842259       6.00124964       7.73678682      -0.00720217      -0.11687489      -0.70846645
Pt       1.61691716       2.00041655      10.00000051       0.00831623       0.12000264       0.70555724
Pt       4.38877633       2.00041655      10.00000051       0.00961721       0.11821958       0.70529371
Pt       7.16063467       2.00041655      10.00000051       0.00558366       0.12553488       0.69686614
Pt       3.00284674       4.40091624      10.00000051       0.00719986       0.10840825       0.70958771
Pt       5.77470508       4.40091624      10.00000051       0.01069065       0.10968275       0.70619565
Pt       8.54656425       4.40091624      10.00000051       0.00519389       0.11216797       0.70603933
Pt       4.38877633       6.80141676      10.00000051       0.00933105       0.11161210       0.70807435
Pt       7.16063467       6.80141676      10.00000051       0.01029984       0.11301258       0.70491061
Pt       9.93249301       6.80141676      10.00000051       0.00380729       0.11327612       0.70739790
Pt       1.64180734       0.84282519      12.41741824       0.00171107      -0.00016532      -0.00023423
Pt       4.41291728       0.84285014      12.41735255      -0.00008845      -0.00018512      -0.00078959
Pt       7.18507165       0.84226389      12.41580086      -0.00169436       0.00283464      -0.00041780
Pt       3.02732613       3.24339723      12.41759453       0.00101790       0.00172907       0.00054585
Pt       5.79892087       3.24286503      12.41705984       0.00010336      -0.00055073      -0.00522937
Pt       8.57130143       3.24273364      12.41715214      -0.00100530       0.00073636      -0.00548442
Pt       4.41319751       5.64372146      12.41743820       0.00200983      -0.00291126       0.00241041
Pt       7.18514150       5.64462370      12.41691182       0.00048748      -0.00587343      -0.00235719
Pt       9.95705639       5.64362749      12.41742406      -0.00284235      -0.00094102       0.00199081
C        1.64364508       1.55365808      14.51478443      -0.00092945       0.00047823      -0.00002211
C        3.02916887       2.38099218      14.54037062      -0.00102278       0.00002108      -0.00413690
C        3.02905328       3.95349252      14.51764083      -0.00095414       0.00032165      -0.00262767
C        4.41488724       4.78087319      14.54025503       0.00005399       0.00012856      -0.00078624
C        4.41484316       6.35405291      14.51649161      -0.00015941       0.00037435       0.00319357
C        5.80101556       7.18219862      14.54012365      -0.00038001      -0.00001388       0.00011801
C        4.41414216       1.55362066      14.51466136      -0.00098216       0.00033219      -0.00036638
C        5.79993204       2.38141461      14.53051001      -0.00095825       0.00010593      -0.00070680
C        5.80011748       3.95449871      14.51295417      -0.00058107      -0.00026559       0.00071297
C        7.18697093       4.78138127      14.54059348      -0.00099219      -0.00042269      -0.00039235
C        7.18679713       6.35516221      14.51639016      -0.00096982       0.00011493       0.00202166
C        8.57293960       7.18220777      14.54012697      -0.00156374      -0.00007353      -0.00024554
C        7.18675971       1.55285646      14.51063662      -0.00075488       0.00034144      -0.00092148
C        8.57400815       2.38150276      14.53037031      -0.00069883       0.00019232      -0.00093742
C        8.57335787       3.95437730      14.51281363      -0.00139148      -0.00037127       0.00116008
C        9.95915025       4.78091144      14.54001555      -0.00212862       0.00001260      -0.00107446
C        9.95874112       6.35408867      14.51652488      -0.00170978       0.00027716       0.00318740
C       11.34479211       7.18058207      14.54105084      -0.00074999      -0.00002854      -0.00145344
C        7.15117986       2.80386998      17.74946111       0.00818279       0.00054893       0.00260273
O        8.32430138       2.80706067      17.73593167      -0.00597396       0.00136063       0.00053068
O        5.97813151       2.80028929      17.75124729      -0.00673218       0.00070525       0.00094514
