179
Lattice="10.720992125991367 0.0 0.0 -5.360496062995684 9.284647205911675 0.0 0.0 0.0 34.99999747733031" Properties=species:S:1:pos:R:3:forces:R:3 energy=-75886.03355151464 free_energy=-75886.03355151464 pbc="T T T"
Si       1.78683208      -0.00000002       5.05623624      -0.00092020       0.00011699      -0.06685588
Si       0.89341603       1.54744198      12.64850174      -0.00302079      -0.00084795       0.19776591
Si       0.89341603       1.54744198       2.52836107      -0.00044583      -0.00083355       0.00714818
Si       1.78683208      -0.00000002      10.12062657       0.00455677      -0.00301539      -0.06129536
Si      -0.04176384      -0.01960329      15.20739380      -0.00838925      -0.00865048       0.00025017
Si       0.00000000       0.00000000       7.58805938      -0.00065126      -0.00027511      -0.06864588
C        0.00000000       0.00000000       5.68435955      -0.00016841      -0.00027665       0.07364462
C        0.00000000       0.00000000      13.27662505      -0.04205656      -0.01834868       0.26015322
C        1.78683208      -0.00000002       3.15844319       0.00116137      -0.00000257       0.08666855
C        0.89341603       1.54744198      10.75070869       0.00253279       0.00251145       0.01144167
C        0.89341603       1.54744198       0.63055283      -0.00408574      -0.00728471      -0.43501394
C        1.78683208      -0.00000002       8.22281833      -0.00015992       0.00088780       0.09922710
Si       1.78683208       3.09488391       5.05623624      -0.00065975      -0.00074151      -0.06668310
Si       3.57366413       0.00000002      12.64850174       0.00115571       0.00140279       0.03426921
Si       3.57366413       0.00000002       2.52836107      -0.00102021      -0.00001748       0.00742997
Si       1.78683208       3.09488391      10.12062657       0.00421944       0.00265029      -0.06172010
Si      -0.04379530       3.12234570      15.20720461       0.00247752      -0.00275957       0.00105827
Si       0.00000000       3.09488393       7.58805938      -0.00065769      -0.00038978      -0.06852710
C        0.00000000       3.09488393       5.68435955       0.00002725       0.00121176       0.07393901
C        0.00000000       3.09488393      13.27662505      -0.04646266       0.03065243       0.25735946
C        1.78683208       3.09488391       3.15844319       0.00056333       0.00113411       0.08754941
C        3.57366413       0.00000002      10.75070869       0.00082507      -0.00268809      -0.02240202
C        3.57366413       0.00000002       0.63055283      -0.00834374       0.00003471      -0.43406649
C        1.78683208       3.09488391       8.22281833      -0.00078419       0.00029053       0.09949809
Si      -0.89341603       1.54744195       5.05623624       0.00070962      -0.00053736      -0.06682169
Si      -1.78683208       3.09488395      12.64850174       0.00247572       0.00366151       0.04050593
Si      -1.78683208       3.09488395       2.52836107       0.00053659      -0.00092663       0.00752562
Si      -0.89341603       1.54744195      10.12062657      -0.00626758      -0.00088806      -0.05941974
Si       2.73642350       1.54138423      15.20718755       0.00191599       0.01437915       0.00657740
Si       2.68024811       1.54744196       7.58805938       0.00023577      -0.00036510      -0.06789152
C        2.68024811       1.54744196       5.68435955       0.00131512       0.00091943       0.07458950
C        2.68024811       1.54744196      13.27662505       0.05899113      -0.01082177       0.26469019
C       -0.89341603       1.54744195       3.15844319      -0.00060909       0.00118734       0.08681047
C       -1.78683208       3.09488395      10.75070869      -0.00342445      -0.00037538      -0.02156616
C       -1.78683208       3.09488395       0.63055283       0.00429066      -0.00755287      -0.43426498
C       -0.89341603       1.54744195       8.22281833       0.00138634       0.00119993       0.09851850
C        0.03400597       0.10457410      18.93983609       0.00049828      -0.00202680       0.00097111
C        1.37456921       0.87843889      18.94076892       0.00099605       0.00047463       0.00818768
C       -1.30669425       2.42528964      18.94141658      -0.00024091       0.00080398       0.00082352
C        0.03441058       3.19928426      18.94014716      -0.00074459       0.00059264      -0.00310949
C        2.71464485       0.10475140      18.94101235      -0.00096982      -0.00009282       0.00299508
C        4.05446420       0.87835000      18.94065681      -0.00053119       0.00170567      -0.00024837
C        1.37508403       2.42520272      18.94058269       0.00047925      -0.00018898       0.00427086
C        2.71460225       3.19824081      18.93892006      -0.00139045      -0.00081144       0.00445984
Si      -0.89341603       4.64232588       5.05623624       0.00020929      -0.00050214      -0.06651932
Si      -1.78683208       6.18976788      12.64850174      -0.00016686      -0.00268963       0.02875290
Si      -1.78683208       6.18976788       2.52836107      -0.00044686       0.00015427       0.00762255
Si      -0.89341603       4.64232588      10.12062657      -0.00413331      -0.00050676      -0.05694428
Si      -2.62198884       4.64696769      15.20725514       0.00051216      -0.00211576       0.00120122
Si      -2.68024811       4.64232589       7.58805938       0.00077776       0.00008228      -0.06773057
C       -2.68024811       4.64232589       5.68435955      -0.00024246      -0.00018949       0.07447432
C       -2.68024811       4.64232589      13.27662505       0.05937757       0.00347176       0.25751964
C       -0.89341603       4.64232588       3.15844319      -0.00002031       0.00071785       0.08753038
C       -1.78683208       6.18976788      10.75070869      -0.00327353       0.00203991      -0.02391049
C       -1.78683208       6.18976788       0.63055283      -0.00414179       0.00211165      -0.43415828
C       -0.89341603       4.64232588       8.22281833       0.00116060       0.00043117       0.09815289
Si      -0.89341603       7.73720981       5.05623624       0.00001697       0.00026122      -0.06651470
Si       0.89341603       4.64232591      12.64850174      -0.00440121      -0.00201497       0.11451591
Si       0.89341603       4.64232591       2.52836107       0.00000386      -0.00058004       0.00765057
Si      -0.89341603       7.73720981      10.12062657      -0.00783955       0.00061424      -0.05973341
Si      -2.65293238       7.73808041      15.20766005       0.00618787      -0.00629766       0.00031856
Si      -2.68024811       7.73720982       7.58805938      -0.00010722       0.00025094      -0.06720221
C       -2.68024811       7.73720982       5.68435955       0.00111869      -0.00125830       0.07482167
C       -2.68024811       7.73720982      13.27662505       0.02999552       0.00303750       0.26243276
C       -0.89341603       7.73720981       3.15844319       0.00038052       0.00004834       0.08773350
C        0.89341603       4.64232591      10.75070869       0.00541551       0.00042397      -0.00610123
C        0.89341603       4.64232591       0.63055283       0.00030673      -0.00478971      -0.43393177
C       -0.89341603       7.73720981       8.22281833       0.00258653      -0.00017843       0.09890288
Si      -3.57366413       6.18976784       5.05623624      -0.00063532       0.00038232      -0.06664428
Si      -4.46708018       7.73720984      12.64850174      -0.00268320       0.00271611       0.11878959
Si      -4.46708018       7.73720984       2.52836107      -0.00046383       0.00072994       0.00723097
Si      -3.57366413       6.18976784      10.12062657       0.00607989       0.00328381      -0.06150696
Si      -0.04779102       6.16035045      15.20718165       0.00124570       0.00634960       0.00690650
Si       0.00000000       6.18976786       7.58805938      -0.00087032      -0.00038952      -0.06840523
C        0.00000000       6.18976786       5.68435955       0.00009410       0.00009770       0.07429897
C        0.00000000       6.18976786      13.27662505      -0.05246182      -0.03262627       0.26444156
C       -3.57366413       6.18976784       3.15844319       0.00062632      -0.00069703       0.08766845
C       -4.46708018       7.73720984      10.75070869       0.00419553      -0.00016352      -0.00458093
C       -4.46708018       7.73720984       0.63055283      -0.00400449       0.00687153      -0.43489953
C       -3.57366413       6.18976784       8.22281833      -0.00134340      -0.00167919       0.09948369
C       -2.64603832       4.74670211      18.93993742      -0.00067826       0.00054816       0.00053428
C       -1.30553792       5.52073897      18.94047144       0.00149458      -0.00105338       0.00821699
C       -3.98676948       7.06788319      18.93974775       0.00084332      -0.00034041       0.01200577
C       -2.64582035       7.84212492      18.94048850      -0.00043066      -0.00032344      -0.00409602
C        0.03413874       4.74713557      18.94019587      -0.00047463       0.00012573       0.01077601
C        1.37401842       5.52111488      18.94003399       0.00164011      -0.00028436       0.00287218
C       -1.30526906       7.06813346      18.94148638      -0.00105287      -0.00047077      -0.00509875
C        0.03470573       7.84142310      18.94097614      -0.00088215       0.00104927       0.00452206
Si       7.14732829      -0.00000002       5.05623624       0.00032653      -0.00016969      -0.06668696
Si       6.25391224       1.54744198      12.64850174      -0.00543943       0.00052451       0.11817844
Si       6.25391224       1.54744198       2.52836107       0.00042475      -0.00037410       0.00773619
Si       7.14732829      -0.00000002      10.12062657       0.00607577       0.00252020      -0.06095520
Si       5.32370186       0.02646544      15.20726969      -0.00890733       0.00003702       0.00081195
Si       5.36049621       0.00000000       7.58805938      -0.00060164       0.00027511      -0.06843300
C        5.36049621       0.00000000       5.68435955       0.00001080      -0.00030108       0.07386342
C        5.36049621       0.00000000      13.27662505      -0.03649552       0.02752649       0.25651845
C        7.14732829      -0.00000002       3.15844319      -0.00108038       0.00006659       0.08727610
C        6.25391224       1.54744198      10.75070869       0.00389496       0.00083304      -0.00513141
C        6.25391224       1.54744198       0.63055283       0.00402738      -0.00242609      -0.43413565
C        7.14732829      -0.00000002       8.22281833      -0.00266212      -0.00081658       0.09934743
Si       7.14732829       3.09488391       5.05623624       0.00011827      -0.00003471      -0.06657743
Si       8.93416034       0.00000002      12.64850174       0.00221681      -0.00297914       0.02532639
Si       8.93416034       0.00000002       2.52836107       0.00089063      -0.00000566       0.00706719
Si       7.14732829       3.09488391      10.12062657       0.00530007      -0.00254256      -0.06191885
Si       5.31360130       3.07225895      15.20764935      -0.00078239      -0.00627349      -0.00034967
Si       5.36049621       3.09488393       7.58805938      -0.00051576      -0.00062375      -0.06840266
C        5.36049621       3.09488393       5.68435955      -0.00012907      -0.00023654       0.07428226
C        5.36049621       3.09488393      13.27662505      -0.04781249      -0.02459363       0.26254948
C        7.14732829       3.09488391       3.15844319      -0.00030622       0.00061424       0.08775715
C        8.93416034       0.00000002      10.75070869      -0.00136294      -0.00015375      -0.02396834
C        8.93416034       0.00000002       0.63055283       0.00848927      -0.00019566      -0.43443853
C        7.14732829       3.09488391       8.22281833      -0.00183037       0.00117114       0.09961919
Si       4.46708018       1.54744195       5.05623624      -0.00018769      -0.00028051      -0.06650133
Si       3.57366413       3.09488395      12.64850174       0.00099167      -0.00330053       0.03646801
Si       3.57366413       3.09488395       2.52836107      -0.00048568      -0.00028719       0.00772488
Si       4.46708018       1.54744195      10.12062657      -0.00360572      -0.00053119      -0.05730012
Si       8.07223335       1.53836029      15.20734743      -0.00063378       0.00772385       0.00673680
Si       8.04074432       1.54744196       7.58805938       0.00107446      -0.00038747      -0.06727291
C        8.04074432       1.54744196       5.68435955      -0.00141385       0.00077699       0.07503045
C        8.04074432       1.54744196      13.27662505       0.03494592      -0.01034638       0.26728237
C        4.46708018       1.54744195       3.15844319       0.00056719       0.00053016       0.08787722
C        3.57366413       3.09488395      10.75070869      -0.00179180       0.00221783      -0.02336001
C        3.57366413       3.09488395       0.63055283      -0.00422844      -0.00276625      -0.43401507
C        4.46708018       1.54744195       8.22281833       0.00156117       0.00030930       0.09855604
C        5.39510057       0.10448478      18.93966706      -0.00104592       0.00071991       0.00236490
C        6.73490275       0.87808094      18.93986734       0.00074948       0.00044454       0.01537751
C        4.05436262       2.42529185      18.93929368       0.00122564       0.00018769       0.00656017
C        5.39454974       3.19857331      18.93868729       0.00008947      -0.00001183      -0.00207308
C        8.07491373       0.10454240      18.94013208      -0.00032422      -0.00044866       0.00826070
C        9.41453463       0.87808037      18.94142774       0.00072659      -0.00010567      -0.00590248
C        6.73462084       2.42489601      18.94048952       0.00123747       0.00141488       0.00430840
C        8.07486204       3.19843340      18.94102669       0.00124416       0.00091480       0.00258627
Si       4.46708018       4.64232588       5.05623624       0.00039261       0.00047257      -0.06658823
Si       3.57366413       6.18976788      12.64850174      -0.00042295       0.00374275       0.05577880
Si       3.57366413       6.18976788       2.52836107       0.00055562       0.00084769       0.00746108
Si       4.46708018       4.64232588      10.12062657      -0.00654577      -0.00137040      -0.05957323
Si       2.70863168       4.63872735      15.20834761       0.00271508      -0.00318071      -0.00168227
Si       2.68024811       4.64232589       7.58805938       0.00016918      -0.00026534      -0.06729837
C        2.68024811       4.64232589       5.68435955      -0.00001388      -0.00023860       0.07476974
C        2.68024811       4.64232589      13.27662505       0.02722310      -0.00511830       0.27301130
C        4.46708018       4.64232588       3.15844319      -0.00010182      -0.00043040       0.08760288
C        3.57366413       6.18976788      10.75070869      -0.00314960      -0.00193938      -0.01838750
C        3.57366413       6.18976788       0.63055283       0.00402095       0.00709419      -0.43426807
C        4.46708018       4.64232588       8.22281833       0.00181597      -0.00009102       0.09905741
Si       4.46708018       7.73720981       5.05623624       0.00051422       0.00051319      -0.06683840
Si       6.25391224       4.64232591      12.64850174       0.00089217      -0.00171827       0.19720130
Si       6.25391224       4.64232591       2.52836107       0.00001183       0.00047437       0.00768451
Si       4.46708018       7.73720981      10.12062657      -0.00347099       0.00286035      -0.05808533
Si       2.72992712       7.74726953      15.20781244       0.01374512      -0.00759607      -0.00103975
Si       2.68024811       7.73720982       7.58805938       0.00142259       0.00037204      -0.06793754
C        2.68024811       7.73720982       5.68435955      -0.00138917      -0.00094205       0.07449643
C        2.68024811       7.73720982      13.27662505       0.04812745       0.01316302       0.26554276
C        4.46708018       7.73720981       3.15844319      -0.00064740      -0.00074022       0.08675391
C        6.25391224       4.64232591      10.75070869       0.00242429      -0.00169127       0.01036206
C        6.25391224       4.64232591       0.63055283       0.00017304       0.00454340      -0.43378984
C        4.46708018       7.73720981       8.22281833       0.00050805      -0.00172135       0.09833133
Si       1.78683208       6.18976784       5.05623624       0.00008176       0.00035558      -0.06658077
Si       0.89341603       7.73720984      12.64850174      -0.00080707       0.00193604       0.19902035
Si       0.89341603       7.73720984       2.52836107       0.00043195       0.00028411       0.00776139
Si       1.78683208       6.18976784      10.12062657       0.00439839      -0.00279916      -0.06196641
Si       5.32567629       6.21058182      15.20794198      -0.00914053       0.00878906       0.00422329
Si       5.36049621       6.18976786       7.58805938      -0.00047128       0.00112383      -0.06881506
C        5.36049621       6.18976786       5.68435955       0.00018486      -0.00144496       0.07406294
C        5.36049621       6.18976786      13.27662505      -0.03317983       0.02164920       0.27453777
C        1.78683208       6.18976784       3.15844319      -0.00029825      -0.00005296       0.08778877
C        0.89341603       7.73720984      10.75070869       0.00098987      -0.00131615       0.01047159
C        0.89341603       7.73720984       0.63055283       0.00407803       0.00222015      -0.43398936
C        1.78683208       6.18976784       8.22281833      -0.00142311       0.00046280       0.10001874
C        2.71435024       4.74678565      18.93711006       0.00082815       0.00043066      -0.00734821
C        4.05481714       5.52114427      18.93540981      -0.00178537      -0.00082790      -0.00606626
C        1.37425183       7.06828961      18.94013996       0.00118656       0.00075385       0.00812520
C        2.71465286       7.84210561      18.93822811      -0.00090709      -0.00004885      -0.00127167
C        5.39504936       4.74669306      18.93837553      -0.00031959       0.00065435      -0.00395101
C        6.73458913       5.52075269      18.94010032       0.00041420      -0.00026405       0.00465421
C        4.05484641       7.06879225      18.93650131      -0.00007173       0.00058261      -0.00733664
C        5.39416619       7.84156760      18.93878019       0.00003420       0.00130355       0.00661956
C        3.94205995       5.25287976      22.23644398       0.00125367       0.00700137       0.00141693
O        3.88743527       6.42625659      22.26991198      -0.00317454       0.00916315       0.00628121
O        3.99695994       4.07990912      22.18729133       0.00131898      -0.01735829       0.00653806
