101
Lattice="17.265850017958673 -0.00010359510010775204 0.0 -8.633011338229426 14.952692293502695 0.0 -0.0 0.0 15.000000722551901" Properties=species:S:1:pos:R:3:forces:R:3 energy=-26515.667440069545 free_energy=-26515.667440069545 pbc="T T T"
C        1.20969135       0.67053928       4.97639282       0.00087058      -0.00126755       0.00002083
C       -0.02353200       1.38254325       4.97646683      -0.00168639       0.00001466       0.00006865
C       -0.02347214       2.80660446       4.97415014       0.00058030      -0.00176018       0.00093202
C       -1.25672708       3.51851724       4.97508667      -0.00160565       0.00177740      -0.00068751
C       -1.25674331       4.94255048       4.97441927      -0.00119916      -0.00094642      -0.00130329
C       -2.49005651       5.65457334       4.97660860      -0.00022240       0.00053248       0.00106084
C       -2.49013491       7.07860530       4.97740619      -0.00174115       0.00088703       0.00074691
C       -3.72342764       7.79068790       4.97886755       0.00088960      -0.00065023       0.00074973
C       -3.72349516       9.21474127       4.97896850      -0.00236259       0.00202294       0.00087700
C       -4.95683531       9.92685491       4.97914428       0.00156349      -0.00177303       0.00128221
C       -4.95682205      11.35090114       4.97841000      -0.00118939       0.00203374       0.00078573
C       -6.19012479      12.06301787       4.97853438       0.00036021      -0.00272563      -0.00059187
C       -6.19011880      13.48709243       4.97736121       0.00077699       0.00073071       0.00234099
C       -7.42335493      14.19916321       4.97787530      -0.00113720      -0.00157352       0.00055536
C        3.67608506       0.67054486       4.97477097       0.00214019      -0.00042989      -0.00060652
C        2.44292869       1.38262517       4.97397933      -0.00195301      -0.00040778       0.00084306
C        2.44291453       2.80667913       4.96933900       0.00175863      -0.00258293      -0.00199029
C        1.20979753       3.51862036       4.96945639      -0.00308147       0.00040649      -0.00195841
C        1.20983791       4.94257800       4.96360465       0.00115700      -0.00061115      -0.00223969
C       -0.02343638       5.65448679       4.96938582      -0.00151515       0.00080424      -0.00213967
C       -0.02369219       7.07843732       4.96930278       0.00015889       0.00130741      -0.00206048
C       -1.25687357       7.79058389       4.97552601      -0.00033604      -0.00039466      -0.00134237
C       -1.25690338       9.21462746       4.97713573      -0.00196227       0.00279685      -0.00149124
C       -2.49022147       9.92680538       4.97868889       0.00216693      -0.00240321       0.00020440
C       -2.49023000      11.35085846       4.97854000      -0.00145113       0.00318225       0.00056127
C       -3.72355716      12.06296859       4.97786118       0.00137425      -0.00180749       0.00149381
C       -3.72355824      13.48705382       4.97702685      -0.00078007       0.00109966       0.00016172
C       -4.95682789      14.19919624       4.97633493      -0.00118991      -0.00325167       0.00083407
C        6.14260938       0.67047484       4.97624917       0.00031419       0.00021134       0.00108218
C        4.90932672       1.38254911       4.97400010       0.00009667      -0.00144393      -0.00123516
C        4.90922998       2.80659561       4.96888810       0.00129532      -0.00121665      -0.00221989
C        3.67606860       3.51868789       4.96326250      -0.00095439       0.00122796      -0.00216615
C        3.67589649       4.94244366       4.95023106       0.00316863      -0.00102433      -0.00042372
C        2.44293527       5.65429316       4.95052428      -0.00214739       0.00274877      -0.00050676
C        2.44257560       7.07819833       4.94618467       0.00168639      -0.00010027      -0.00212836
C        1.20959988       7.79040897       4.96057917      -0.00208131       0.00083535      -0.00160823
C        1.20965027       9.21459655       4.96648545       0.00078316       0.00267318      -0.00147093
C       -0.02368898       9.92673862       4.97548384       0.00064303      -0.00077313      -0.00332032
C       -0.02363213      11.35082207       4.97822972      -0.00191316       0.00218544      -0.00144007
C       -1.25696701      12.06294341       4.97899250       0.00106161      -0.00356149       0.00002777
C       -1.25699585      13.48701326       4.97872059      -0.00249114       0.00235667       0.00083355
C       -2.49034312      14.19912713       4.97734959       0.00161080      -0.00328536       0.00076979
C        8.60920685       0.67039587       4.97879677      -0.00107112       0.00040623       0.00075385
C        7.37588312       1.38242131       4.97705568       0.00195455      -0.00097059       0.00080476
C        7.37584680       2.80645036       4.97498687      -0.00049751      -0.00073225      -0.00124056
C        6.14252150       3.51834046       4.96865963       0.00130921       0.00125264      -0.00200340
C        6.14245758       4.94239789       4.95982427       0.00160385      -0.00189439      -0.00145370
C        4.90919210       5.65406912       4.94555942      -0.00081324       0.00211499      -0.00215304
C        4.90968855       7.07841446       4.93724172       0.00097008      -0.00014270      -0.00051833
C        3.67583155       7.79079803       4.93757387      -0.00031393       0.00108063      -0.00054276
C        3.67630491       9.21512664       4.94813183       0.00096339       0.00126113      -0.00097573
C        2.44297960       9.92687131       4.96257348       0.00016558      -0.00084872      -0.00184579
C        2.44293961      11.35091697       4.97287904      -0.00035867       0.00242661      -0.00401581
C        1.20960445      12.06289460       4.97813545       0.00166479      -0.00162494      -0.00116574
C        1.20956915      13.48693431       4.97988358      -0.00161002       0.00219701       0.00008176
C       -0.02374153      14.19905104       4.97943731       0.00216693      -0.00247237       0.00070088
C       11.07586988       0.67031310       4.97943866      -0.00203991       0.00057721       0.00118476
C        9.84249825       1.38236566       4.97899379       0.00302336      -0.00099322       0.00084795
C        9.84252666       2.80644683       4.97849012      -0.00309021       0.00061552       0.00026688
C        8.60910665       3.51844405       4.97664312       0.00372810      -0.00008613      -0.00144059
C        8.60920569       4.94249933       4.97487926      -0.00089423       0.00000566      -0.00332109
C        7.37580794       5.65452593       4.96577227       0.00203091       0.00263410      -0.00140305
C        7.37599391       7.07877426       4.96195036      -0.00057207      -0.00071965      -0.00181057
C        6.14294668       7.79099454       4.94770521       0.00054893       0.00193630      -0.00088883
C        6.14263549       9.21493847       4.95432858       0.00174012      -0.00019412      -0.00219495
C        4.90961539       9.92682850       4.95450143      -0.00096416       0.00135111      -0.00215176
C        4.90948316      11.35065743       4.96883632       0.00049571      -0.00050342      -0.00194504
C        3.67625466      12.06276506       4.97421331      -0.00032165      -0.00060987      -0.00270969
C        3.67617602      13.48685903       4.97898150      -0.00054739       0.00084409      -0.00097856
C        2.44283077      14.19892755       4.97988998       0.00208414      -0.00055407      -0.00015015
C       13.54248329       0.67032376       4.97890354      -0.00225254      -0.00078496      -0.00066026
C       12.30912617       1.38234535       4.97872970       0.00218492      -0.00004011       0.00076876
C       12.30915629       2.80642267       4.97806199      -0.00188488       0.00022600       0.00139148
C       11.07579579       3.51846453       4.97848079       0.00326222       0.00049982       0.00050676
C       11.07583835       4.94255097       4.97878204      -0.00330361      -0.00088832       0.00003805
C        9.84246372       5.65459301       4.97774709       0.00269092      -0.00044326      -0.00135471
C        9.84251419       7.07865081       4.97760175      -0.00187048       0.00057130      -0.00112409
C        8.60926933       7.79076598       4.97229541       0.00199235       0.00108269      -0.00400372
C        8.60907610       9.21477871       4.97373206       0.00010824      -0.00045380      -0.00261661
C        7.37576819       9.92674245       4.96855688      -0.00096519       0.00004319      -0.00193655
C        7.37587142      11.35076959       4.97517043       0.00006659       0.00021752      -0.00313263
C        6.14266786      12.06276807       4.97529484       0.00003265      -0.00033501      -0.00314729
C        6.14267809      13.48685359       4.97901911       0.00056307      -0.00023037      -0.00077082
C        4.90943921      14.19892729       4.97936828       0.00082584       0.00008459      -0.00117037
C       16.00905698       0.67037573       4.97804158      -0.00085155      -0.00129275       0.00057876
C       14.77576996       1.38236640       4.97765349       0.00005142       0.00081838       0.00232428
C       14.77581788       2.80648005       4.97664302      -0.00204686      -0.00244872       0.00087263
C       13.54245387       3.51846303       4.97729220       0.00108192      -0.00004731       0.00014115
C       13.54250447       4.94250424       4.97756311      -0.00313906      -0.00031110       0.00074253
C       12.30913160       5.65456629       4.97869191       0.00305293      -0.00092354       0.00076645
C       12.30914089       7.07862479       4.97930187      -0.00300408       0.00044403       0.00066797
C       11.07578039       7.79065055       4.97948510       0.00255619      -0.00031496       0.00009667
C       11.07574104       9.21468963       4.97945684      -0.00094205       0.00136526      -0.00009642
C        9.84241566       9.92677036       4.97851252       0.00048465      -0.00028282      -0.00099039
C        9.84244322      11.35084257       4.97898786       0.00007765       0.00092045      -0.00111637
C        8.60916210      12.06283176       4.97880195      -0.00093537      -0.00009179      -0.00078316
C        8.60922581      13.48694189       4.97913358       0.00086955      -0.00072891       0.00040135
C        7.37596555      14.19897037       4.97922898      -0.00128967       0.00001234       0.00045071
C        4.30433461       7.43841753       8.21912920       0.00061758       0.00002905       0.01486098
O        3.72219840       6.41480629       8.21793263       0.00250271       0.00586160       0.02347160
O        4.88663777       8.46193331       8.22327783      -0.00334783      -0.00475937       0.02179138
