179
Lattice="10.720992125991367 0.0 0.0 -5.360496062995684 9.284647205911675 0.0 0.0 0.0 34.99999747733031" Properties=species:S:1:pos:R:3:forces:R:3 energy=-73227.27328838341 free_energy=-73227.27328838341 pbc="T T T"
Si       1.78683208      -0.00000002       5.05623624       0.00029491      -0.00005734      -0.02483300
Si       0.89341603       1.54744198      12.64850174      -0.00097059       0.00085798      -0.17073668
Si       0.89341603       1.54744198       2.52836107       0.00030056       0.00032139       0.27072482
Si       1.78683208      -0.00000002      10.12062657       0.00000566      -0.00046845      -0.07187930
Si       0.00274756       0.00559010      15.17076893      -0.00356792      -0.00503962      -0.00476477
Si       0.00000000       0.00000000       7.58805938      -0.00005425       0.00012727      -0.09713088
C        0.00000000       0.00000000       5.68435955      -0.00004088      -0.00000514       0.08316516
C        0.00000000       0.00000000      13.27662505       0.00273977       0.00458685      -0.04606826
C        1.78683208      -0.00000002       3.15844319       0.00194864       0.00000103       0.08289597
C        0.89341603       1.54744198      10.75070869      -0.00126730       0.00183397       0.03304999
C        0.89341603       1.54744198       0.63055283       0.00275391       0.00471746      -0.19419362
C        1.78683208      -0.00000002       8.22281833       0.00197872       0.00008202       0.10145624
Si       1.78683208       3.09488391       5.05623624       0.00017021       0.00032319      -0.02486102
Si       3.57366413       0.00000002      12.64850174       0.00099759      -0.00079190      -0.17132752
Si       3.57366413       0.00000002       2.52836107       0.00034658       0.00009719       0.27083975
Si       1.78683208       3.09488391      10.12062657      -0.00090734       0.00118399      -0.07238684
Si      -0.00191332       3.08989390      15.17062771       0.00255773       0.00500182      -0.00472774
Si       0.00000000       3.09488393       7.58805938       0.00003085       0.00022831      -0.09694704
C        0.00000000       3.09488393       5.68435955      -0.00002057       0.00216410       0.08330734
C        0.00000000       3.09488393      13.27662505      -0.00065126      -0.00017715      -0.04892989
C        1.78683208       3.09488391       3.15844319       0.00098036       0.00179052       0.08268102
C        3.57366413       0.00000002      10.75070869       0.00316811      -0.00196484       0.03322534
C        3.57366413       0.00000002       0.63055283       0.00537566       0.00003651      -0.19475078
C        1.78683208       3.09488391       8.22281833       0.00122667       0.00140254       0.10141922
Si      -0.89341603       1.54744195       5.05623624      -0.00022600       0.00025480      -0.02480369
Si      -1.78683208       3.09488395      12.64850174       0.00015170       0.00100453      -0.17097553
Si      -1.78683208       3.09488395       2.52836107      -0.00027331       0.00029465       0.27082252
Si      -0.89341603       1.54744195      10.12062657       0.00195172       0.00123799      -0.07193587
Si       2.67823899       1.54335354      15.17138503       0.00333626       0.00681111      -0.00301745
Si       2.68024811       1.54744196       7.58805938       0.00030365       0.00027099      -0.09725712
C        2.68024811       1.54744196       5.68435955       0.00188513       0.00105827       0.08320321
C        2.68024811       1.54744196      13.27662505       0.00016455      -0.00249603      -0.02453527
C       -0.89341603       1.54744195       3.15844319      -0.00091917       0.00173087       0.08282526
C       -1.78683208       3.09488395      10.75070869       0.00070500       0.00424823       0.03306233
C       -1.78683208       3.09488395       0.63055283      -0.00271997       0.00470306      -0.19465051
C       -0.89341603       1.54744195       8.22281833      -0.00159743       0.00135446       0.10134723
C        0.04443225       0.07994874      18.57607959       0.00015761       0.00044891       0.00235667
C        1.38495864       0.85384628      18.57428886       0.00019643       0.00027639       0.00891427
C       -1.29641127       2.40094524      18.57659244      -0.00033090      -0.00021957       0.00498306
C        0.04427553       3.17563818      18.57090123      -0.00034427      -0.00061655       0.00919864
C        2.72477968       0.08046783      18.57507676       0.00033604       0.00030236       0.00753050
C        4.06426464       0.85420213      18.57283095      -0.00011956      -0.00014758       0.00865073
C        1.38487579       2.40061350      18.56944858      -0.00003754       0.00005759       0.01345921
C        2.72479447       3.17308115      18.56364343       0.00017098      -0.00011544       0.01521399
Si      -0.89341603       4.64232588       5.05623624      -0.00000823       0.00025197      -0.02489419
Si      -1.78683208       6.18976788      12.64850174      -0.00031110       0.00014501      -0.15311202
Si      -1.78683208       6.18976788       2.52836107       0.00030390      -0.00009770       0.27087266
Si      -0.89341603       4.64232588      10.12062657      -0.00104335      -0.00217258      -0.07247426
Si      -2.68473926       4.63698197      15.17079573       0.00431123       0.00429194      -0.00491826
Si      -2.68024811       4.64232589       7.58805938      -0.00009539      -0.00018923      -0.09700387
C       -2.68024811       4.64232589       5.68435955      -0.00003111       0.00001131       0.08330760
C       -2.68024811       4.64232589      13.27662505      -0.00341700      -0.00393893      -0.04618318
C       -0.89341603       4.64232588       3.15844319      -0.00000797       0.00111020       0.08258101
C       -1.78683208       6.18976788      10.75070869      -0.00153289      -0.00080604       0.03740595
C       -1.78683208       6.18976788       0.63055283       0.00274774      -0.00154292      -0.19501972
C       -0.89341603       4.64232588       8.22281833       0.00029593       0.00177869       0.10160177
Si      -0.89341603       7.73720981       5.05623624       0.00016404      -0.00014732      -0.02488725
Si       0.89341603       4.64232591      12.64850174       0.00112923      -0.00026020      -0.15645857
Si       0.89341603       4.64232591       2.52836107      -0.00009873       0.00030545       0.27057056
Si      -0.89341603       7.73720981      10.12062657      -0.00018306       0.00212630      -0.07202071
Si      -2.67723354       7.74208900      15.17074038      -0.00175941      -0.00557749      -0.00443387
Si      -2.68024811       7.73720982       7.58805938       0.00040958      -0.00019438      -0.09718050
C       -2.68024811       7.73720982       5.68435955       0.00190802      -0.00111380       0.08319293
C       -2.68024811       7.73720982      13.27662505       0.00416107       0.00314600      -0.04627754
C       -0.89341603       7.73720981       3.15844319       0.00100556      -0.00054199       0.08255272
C        0.89341603       4.64232591      10.75070869       0.00100582      -0.00096262       0.03666676
C        0.89341603       4.64232591       0.63055283      -0.00001697       0.00318740      -0.19483820
C       -0.89341603       7.73720981       8.22281833       0.00105518      -0.00121845       0.10138091
Si      -3.57366413       6.18976784       5.05623624       0.00018126      -0.00021083      -0.02487208
Si      -4.46708018       7.73720984      12.64850174       0.00084615       0.00081453      -0.15331617
Si      -4.46708018       7.73720984       2.52836107       0.00013138      -0.00042115       0.27073973
Si      -3.57366413       6.18976784      10.12062657       0.00131126      -0.00139045      -0.07257170
Si       0.00475426       6.19610182      15.17158767      -0.00403123      -0.00809332      -0.00340620
Si       0.00000000       6.18976786       7.58805938       0.00013113       0.00016918      -0.09751397
C        0.00000000       6.18976786       5.68435955      -0.00003805      -0.00002700       0.08311862
C        0.00000000       6.18976786      13.27662505       0.00377901       0.00535201      -0.02163403
C       -3.57366413       6.18976784       3.15844319       0.00106109      -0.00168896       0.08268282
C       -4.46708018       7.73720984      10.75070869       0.00171055      -0.00021572       0.03715733
C       -4.46708018       7.73720984       0.63055283       0.00270891      -0.00470023      -0.19418334
C       -3.57366413       6.18976784       8.22281833       0.00062401      -0.00137040       0.10154289
C       -2.63544713       4.72236521      18.57603547      -0.00018898      -0.00018846       0.00349516
C       -1.29475968       5.49625501      18.57649384      -0.00040726      -0.00025762       0.00355249
C       -3.97694621       7.04284291      18.57856811       0.00017946      -0.00021212       0.00060112
C       -2.63564412       7.81705770      18.57638450       0.00007482       0.00028848       0.00172470
C        0.04442086       4.72317132      18.57212871      -0.00026508      -0.00030622       0.00824450
C        1.38297432       5.49674644      18.56914924       0.00025505       0.00005939       0.01168849
C       -1.29475886       7.04271664      18.57735006       0.00003034      -0.00009282       0.00361420
C        0.04443818       7.81580575      18.57639497      -0.00005656      -0.00003008       0.00595210
Si       7.14732829      -0.00000002       5.05623624      -0.00026482       0.00004422      -0.02486797
Si       6.25391224       1.54744198      12.64850174      -0.00155963       0.00143339      -0.15438266
Si       6.25391224       1.54744198       2.52836107      -0.00005939       0.00013113       0.27065334
Si       7.14732829      -0.00000002      10.12062657      -0.00183397      -0.00211987      -0.07260050
Si       5.35614350      -0.00444279      15.17074423       0.00343731       0.00446652      -0.00480385
Si       5.36049621       0.00000000       7.58805938      -0.00018126      -0.00007636      -0.09699255
C        5.36049621       0.00000000       5.68435955      -0.00003214      -0.00002288       0.08329757
C        5.36049621       0.00000000      13.27662505      -0.00312286      -0.00237004      -0.04660073
C        7.14732829      -0.00000002       3.15844319      -0.00197821      -0.00001414       0.08265994
C        6.25391224       1.54744198      10.75070869      -0.00319074       0.00018692       0.03706245
C        6.25391224       1.54744198       0.63055283      -0.00266263       0.00160360      -0.19486288
C        7.14732829      -0.00000002       8.22281833      -0.00151875       0.00059084       0.10159766
Si       7.14732829       3.09488391       5.05623624      -0.00018872       0.00006556      -0.02487825
Si       8.93416034       0.00000002      12.64850174       0.00051396      -0.00025068      -0.15270399
Si       8.93416034       0.00000002       2.52836107      -0.00044891       0.00009770       0.27107295
Si       7.14732829       3.09488391      10.12062657      -0.00060524       0.00229342      -0.07190784
Si       5.36287592       3.09931663      15.17048900      -0.00272151      -0.00484910      -0.00457091
Si       5.36049621       3.09488393       7.58805938       0.00010336       0.00005142      -0.09714913
C        5.36049621       3.09488393       5.68435955      -0.00001825      -0.00002854       0.08322610
C        5.36049621       3.09488393      13.27662505       0.00131795       0.00391810      -0.05119941
C        7.14732829       3.09488391       3.15844319      -0.00098319       0.00063378       0.08261906
C        8.93416034       0.00000002      10.75070869      -0.00109658      -0.00240321       0.03719538
C        8.93416034       0.00000002       0.63055283      -0.00540574       0.00003805      -0.19439391
C        7.14732829       3.09488391       8.22281833      -0.00082610      -0.00010156       0.10127961
Si       4.46708018       1.54744195       5.05623624       0.00021032       0.00014218      -0.02488391
Si       3.57366413       3.09488395      12.64850174       0.00121922       0.00155295      -0.15686378
Si       3.57366413       3.09488395       2.52836107       0.00013395       0.00000514       0.27083332
Si       4.46708018       1.54744195      10.12062657       0.00128864      -0.00036818      -0.07238350
Si       8.04493726       1.55490442      15.17169038      -0.00531164      -0.00696640      -0.00333755
Si       8.04074432       1.54744196       7.58805938      -0.00024734       0.00037075      -0.09748723
C        8.04074432       1.54744196       5.68435955      -0.00193167       0.00106701       0.08309523
C        8.04074432       1.54744196      13.27662505       0.00131281       0.00727545      -0.01992039
C        4.46708018       1.54744195       3.15844319       0.00101764       0.00063506       0.08256044
C        3.57366413       3.09488395      10.75070869       0.00193681       0.00231091       0.03663642
C        3.57366413       3.09488395       0.63055283       0.00272357       0.00156606      -0.19490042
C        4.46708018       1.54744195       8.22281833       0.00064380       0.00069445       0.10148016
C        5.40524714       0.07995360      18.57443006      -0.00024271      -0.00057876       0.00535124
C        6.74568731       0.85397937      18.57709682       0.00005939      -0.00036972       0.00337817
C        4.06436920       2.39999265      18.56747247       0.00000591      -0.00004114       0.01221763
C        5.40504846       3.17456914      18.57038036       0.00010413       0.00013395       0.00853246
C        8.08547322       0.08053546      18.57811371      -0.00053556      -0.00016352       0.00166068
C        9.42469170       0.85410975      18.57798239      -0.00021186       0.00008562       0.00194967
C        6.74581191       2.40055497      18.57609781       0.00029182       0.00002365       0.00495889
C        8.08542923       3.17384592      18.57727666      -0.00017509      -0.00038927       0.00478328
Si       4.46708018       4.64232588       5.05623624      -0.00007585      -0.00027305      -0.02489779
Si       3.57366413       6.18976788      12.64850174      -0.00194221      -0.00126550      -0.17181577
Si       3.57366413       6.18976788       2.52836107      -0.00010336      -0.00040623       0.27079373
Si       4.46708018       4.64232588      10.12062657      -0.00041652      -0.00103975      -0.07179806
Si       2.68218858       4.64686579      15.17028658      -0.00310332      -0.00481490      -0.00418139
Si       2.68024811       4.64232589       7.58805938      -0.00000334       0.00014604      -0.09713191
C        2.68024811       4.64232589       5.68435955      -0.00003831      -0.00001466       0.08322172
C        2.68024811       4.64232589      13.27662505       0.00214250       0.00301153      -0.05342984
C        4.46708018       4.64232588       3.15844319       0.00000797      -0.00113154       0.08260852
C        3.57366413       6.18976788      10.75070869      -0.00321799      -0.00132720       0.03315952
C        3.57366413       6.18976788       0.63055283      -0.00268989      -0.00468584      -0.19470707
C        4.46708018       4.64232588       8.22281833       0.00009050      -0.00094488       0.10138117
Si       4.46708018       7.73720981       5.05623624      -0.00016069      -0.00023474      -0.02481757
Si       6.25391224       4.64232591      12.64850174       0.00016378      -0.00245103      -0.17194175
Si       6.25391224       4.64232591       2.52836107      -0.00011467      -0.00010979       0.27054999
Si       4.46708018       7.73720981      10.12062657      -0.00157711       0.00019258      -0.07258430
Si       2.67736561       7.72998228      15.17077391       0.00230114       0.00583615      -0.00470049
Si       2.68024811       7.73720982       7.58805938      -0.00041240      -0.00033630      -0.09699075
C        2.68024811       7.73720982       5.68435955      -0.00186096      -0.00108398       0.08327752
C        2.68024811       7.73720982      13.27662505      -0.00428629      -0.00689338      -0.04601658
C        4.46708018       7.73720981       3.15844319      -0.00098679      -0.00164628       0.08282475
C        6.25391224       4.64232591      10.75070869       0.00156837      -0.00291409       0.03305050
C        6.25391224       4.64232591       0.63055283      -0.00001594      -0.00308815      -0.19478215
C        4.46708018       7.73720981       8.22281833      -0.00058313      -0.00178949       0.10153646
Si       1.78683208       6.18976784       5.05623624      -0.00020775      -0.00016661      -0.02488057
Si       0.89341603       7.73720984      12.64850174      -0.00017252      -0.00013653      -0.17068885
Si       0.89341603       7.73720984       2.52836107      -0.00022960      -0.00023166       0.27060218
Si       1.78683208       6.18976784      10.12062657       0.00187202       0.00048671      -0.07188187
Si       5.35728271       6.18348320      15.17160616       0.00359697       0.00701037      -0.00300536
Si       5.36049621       6.18976786       7.58805938      -0.00000514      -0.00042860      -0.09728103
C        5.36049621       6.18976786       5.68435955      -0.00000437      -0.00219906       0.08319756
C        5.36049621       6.18976786      13.27662505      -0.00339257      -0.00940844      -0.02116712
C        1.78683208       6.18976784       3.15844319      -0.00093048      -0.00052888       0.08261674
C        0.89341603       7.73720984      10.75070869       0.00031522       0.00228263       0.03327805
C        0.89341603       7.73720984       0.63055283      -0.00265132      -0.00158586      -0.19479860
C        1.78683208       6.18976784       8.22281833      -0.00159126      -0.00069780       0.10125853
C        2.72447863       4.72291086      18.56367720       0.00008562       0.00001183       0.01476816
C        4.06554863       5.49639670      18.57149246       0.00029645      -0.00007816       0.01237523
C        1.38334716       7.04254322      18.57421158      -0.00007970      -0.00019669       0.00732430
C        2.72483860       7.81718220      18.57476618      -0.00020929      -0.00033476       0.00437319
C        5.40522676       4.72245064      18.57371301       0.00008973      -0.00002031       0.00942386
C        6.74439234       5.49612555      18.57745161      -0.00019335       0.00003857       0.00398238
C        4.06564688       7.04310479      18.57589169      -0.00009539      -0.00054687       0.00656120
C        5.40515714       7.81598056      18.57821510       0.00002982      -0.00014141       0.00154292
C        2.61527517       3.79235284      21.77810663      -0.02132499       0.01042942       0.01673171
O        1.51833114       4.21080150      21.75425312       0.00371756      -0.00942258       0.01670394
O        3.71207493       3.37414858      21.79357180       0.01921720       0.00104515       0.01927736
