101
Lattice="17.265850017958673 -0.00010359510010775204 0.0 -8.633011338229426 14.952692293502695 0.0 -0.0 0.0 15.000000722551901" Properties=species:S:1:pos:R:3:forces:R:3 energy=-26794.460923518447 free_energy=-26794.460923518447 pbc="T T T"
C        1.20551220       0.66400667       5.01610575      -0.00060575      -0.00504502      -0.01169029
C       -0.02770085       1.37600723       5.01610361      -0.00400449      -0.00308378      -0.01167178
C       -0.02783015       2.79991092       5.00966549      -0.00647455       0.00608734      -0.00161800
C       -1.26107603       3.51229382       5.00866852      -0.00136860      -0.00583332      -0.00501751
C       -1.26131636       4.93628483       5.00040291       0.00106598       0.00305936      -0.00546385
C       -2.49439594       5.64873962       4.99876092       0.00014887      -0.00828641       0.00494320
C       -2.49407297       7.07248548       4.99323125      -0.00214867       0.00017329      -0.00175812
C       -3.72727141       7.78444748       4.99466507      -0.00144985      -0.00129018       0.00978639
C       -3.72730248       9.20844562       4.99725169      -0.00462387      -0.00546642       0.00058338
C       -4.96058914       9.92050164       5.00314731       0.00027074       0.00804678      -0.00770842
C       -4.96039255      11.34444420       5.00923049      -0.00309612      -0.00179489      -0.00294700
C       -6.19370796      12.05630406       5.01373784       0.00034144       0.00548596      -0.00672729
C       -6.19398883      13.48044470       5.01721823      -0.00240115      -0.00363451      -0.01851014
C       -7.42738595      14.19264181       5.01753813       0.00398367       0.00375844       0.00475628
C        3.67227158       0.66401159       5.00867197      -0.00435622      -0.00415722      -0.00503113
C        2.43870966       1.37584777       5.00966516       0.00853529      -0.00258653      -0.00162828
C        2.43878981       2.79982379       5.00172101      -0.00235256       0.00616165      -0.00193296
C        1.20532562       3.51196759       5.00172521       0.00652675       0.00106752      -0.00198232
C        1.20550007       4.93598799       4.99233969      -0.00153855       0.00742792       0.00491544
C       -0.02789423       5.64822106       4.99202625       0.01052635      -0.00447629       0.00397467
C       -0.02737096       7.07236142       4.98499059      -0.00523914       0.00007225       0.00537669
C       -1.26078534       7.78415588       4.98725554       0.00392068       0.00814731       0.01272593
C       -1.26034315       9.20822106       4.98774156      -0.00402943      -0.00444364       0.00007508
C       -2.49370967       9.92020898       4.99480711       0.00155346       0.01144681       0.00488921
C       -2.49376254      11.34449655       4.99996095      -0.00271817      -0.00201909      -0.00429040
C       -3.72714929      12.05619303       5.00791749       0.00172212       0.01025947      -0.01015920
C       -3.72685480      13.48043038       5.00928858      -0.01004504      -0.00694815      -0.00373504
C       -4.96051908      14.19242455       5.01336841       0.00425955       0.00766909      -0.00531833
C        6.13914069       0.66414382       4.99879900      -0.00724537      -0.00404666       0.00486298
C        4.90560007       1.37580107       5.00040689       0.00211756       0.00237467      -0.00537129
C        4.90544265       2.79994779       4.99201875      -0.00918707       0.00680802       0.00396747
C        3.67193641       3.51198617       4.99233158       0.00719060       0.00237621       0.00490669
C        3.67212537       4.93614271       4.98373649      -0.00318611       0.00607732       0.00222040
C        2.43875871       5.64822910       4.98374097       0.00683656       0.00035276       0.00224843
C        2.43964114       7.07255361       4.97622648      -0.00712453       0.00066669       0.00575259
C        1.20607371       7.78424019       4.97875396       0.00084641       0.00072017       0.00615574
C        1.20608703       9.20845540       4.97806888      -0.00190313      -0.00720526       0.00815091
C       -0.02726304       9.92052888       4.98362626       0.00099810       0.00489281       0.01173220
C       -0.02697456      11.34469484       4.98859625      -0.00563072      -0.01025202       0.00202346
C       -1.26033533      12.05625098       4.99591190      -0.00212425       0.00692912       0.00034787
C       -1.26054160      13.48062821       4.99817020      -0.00643110      -0.00576107       0.00424463
C       -2.49388595      14.19283706       5.00334526      -0.00144007      -0.00190005      -0.01064128
C        8.60514785       0.66429177       4.99474332      -0.00042243      -0.00197229       0.00965346
C        7.37197508       1.37629821       4.99328016       0.00120045      -0.00184965      -0.00175349
C        7.37165309       2.80019473       4.98727042       0.00505402       0.00744026       0.01274290
C        6.13851772       3.51247042       4.98497807       0.00266546      -0.00448426       0.00540086
C        6.13829634       4.93660772       4.97872713       0.00018718       0.00101456       0.00620639
C        4.90518038       5.64906918       4.97621196       0.00403406      -0.00579989       0.00575927
C        4.90536708       7.07292354       4.96973833       0.00081530       0.00338383      -0.00244229
C        3.67263817       7.78464339       4.96974200       0.00242249       0.00248291      -0.00240861
C        3.67272496       9.20834549       4.97190072       0.00062581      -0.00255825      -0.00316451
C        2.43966410       9.92032243       4.97735540       0.00613131       0.00594568       0.00613697
C        2.43925819      11.34460014       4.98553176      -0.00030416      -0.00402146       0.00799767
C        1.20610587      12.05643515       4.98902860      -0.00215098       0.00492906       0.00547336
C        1.20578148      13.48039054       4.99445078       0.00234922       0.00001980       0.00614648
C       -0.02727964      14.19273287       4.99593483      -0.00117834       0.00519646      -0.00390628
C       11.07167382       0.66422914       5.00318754       0.00683682       0.00415927      -0.00773259
C        9.83837641       1.37626400       4.99731001      -0.00247931      -0.00672086       0.00058801
C        9.83798041       2.80047312       4.99484412       0.00912305       0.00699443       0.00481799
C        8.60470125       3.51261118       4.98775491      -0.00182060      -0.00574976       0.00000977
C        8.60503228       4.93664604       4.98359734       0.00372990       0.00325193       0.01181962
C        7.37168839       5.64872682       4.97803673      -0.00524608      -0.00528387       0.00810643
C        7.37139209       7.07297056       4.97732205       0.00208414       0.00833089       0.00618222
C        6.13827836       7.78485186       4.97189175      -0.00260298      -0.00072942      -0.00319305
C        6.13860419       9.20868879       4.97728709       0.00047257      -0.00506610      -0.00337894
C        4.90563650       9.92054782       4.97729188      -0.00473392      -0.00207668      -0.00338434
C        4.90589272      11.34454108       4.99061180      -0.00533350      -0.00778633       0.00487995
C        3.67247726      12.05644175       4.99310345      -0.00268783       0.00066000      -0.00242301
C        3.67214369      13.48076705       5.00180996       0.00292180      -0.00492443      -0.00366228
C        2.43864839      14.19281364       4.99987813       0.00075565       0.00332881       0.00183474
C       13.53788055       0.66421097       5.01373485       0.00458068       0.00296037      -0.00668358
C       12.30473885       1.37636958       5.00924179      -0.00000823      -0.00357203      -0.00292874
C       12.30450486       2.80026646       5.00792059       0.00803213       0.00663987      -0.01015072
C       11.07146983       3.51257052       4.99996980      -0.00044532      -0.00344656      -0.00437730
C       11.07114643       4.93662786       4.99587622       0.00708982       0.00166479       0.00041369
C        9.83824412       5.64897748       4.98855515      -0.00603155      -0.01007950       0.00198592
C        9.83808426       7.07272605       4.98897405       0.00543223       0.00074408       0.00550396
C        8.60504803       7.78475863       4.98549000      -0.00335786      -0.00231219       0.00804164
C        8.60490613       9.20868049       4.99308135       0.00199903      -0.00189876      -0.00245900
C        7.37168223       9.92090832       4.99060092      -0.00413511      -0.00845790       0.00489384
C        7.37186826      11.34482021       5.00190269       0.00158406      -0.00651363      -0.00280250
C        6.13893687      12.05666074       5.00190705      -0.00648638      -0.00192936      -0.00282924
C        6.13852042      13.48044337       5.01070754       0.00140871       0.00357255      -0.00243586
C        4.90547526      14.19289269       5.00963251      -0.00341288       0.00180491      -0.00461127
C       16.00482959       0.66397632       5.01753485       0.00130509       0.00528105       0.00472389
C       14.77135551       1.37603733       5.01721063      -0.00193218      -0.00388879      -0.01847903
C       14.77120841       2.80024577       5.01336130       0.00453388       0.00753796      -0.00533915
C       13.53777611       3.51264017       5.00927293      -0.00097779      -0.01219808      -0.00373581
C       13.53824845       4.93662802       5.00330482      -0.00090246      -0.00217798      -0.01062586
C       12.30478952       5.64863647       4.99811275      -0.00174758      -0.00842988       0.00424129
C       12.30485483       7.07272728       4.99585450       0.00508744       0.00162031      -0.00381140
C       11.07142127       7.78442387       4.99438644      -0.00110789       0.00208002       0.00613851
C       11.07196087       9.20833380       4.99983339       0.00252508       0.00234202       0.00187305
C        9.83856818       9.92055584       5.00179069      -0.00573125       0.00012316      -0.00369982
C        9.83861604      11.34472115       5.00963027       0.00330695      -0.00203246      -0.00462079
C        8.60509989      12.05635424       5.01070702       0.00239138       0.00300279      -0.00242301
C        8.60514417      13.48041541       5.01680552       0.00804344       0.00053633      -0.01051118
C        7.37176388      14.19251440       5.01680124      -0.00352755       0.00719292      -0.01045642
C        4.92927544       8.53806145       9.16549287      -0.00885308      -0.01325687       0.00267960
O        4.91801909       8.51907892       7.99022712       0.00379341       0.00555410      -0.00205791
O        4.93904276       8.55479631      10.33952371       0.00497457       0.00759170       0.02279849
