179
Lattice="10.720992125991367 0.0 0.0 -5.360496062995684 9.284647205911675 0.0 0.0 0.0 34.99999747733031" Properties=species:S:1:pos:R:3:forces:R:3 energy=-73584.24238987365 free_energy=-73584.24238987365 pbc="T T T"
Si       1.78683208      -0.00000002       5.05623624       0.00048002      -0.00005991      -0.02895731
Si       0.89341603       1.54744198      12.64850174       0.00205971       0.00203554      -0.14768134
Si       0.89341603       1.54744198       2.52836107       0.00027948       0.00024297       0.24355957
Si       1.78683208      -0.00000002      10.12062657      -0.00370470      -0.00021623      -0.08088845
Si       0.01967264       0.00590738      15.16843891       0.00276522       0.00088909       0.01531606
Si       0.00000000       0.00000000       7.58805938       0.00032833       0.00005656      -0.10098599
C        0.00000000       0.00000000       5.68435955       0.00000926       0.00004139       0.09274406
C        0.00000000       0.00000000      13.27662505       0.01544667       0.00419296      -0.06712970
C        1.78683208      -0.00000002       3.15844319       0.00177792      -0.00019283       0.09161689
C        0.89341603       1.54744198      10.75070869      -0.00244306       0.00073405       0.02831479
C        0.89341603       1.54744198       0.63055283       0.00248523       0.00385923      -0.20074788
C        1.78683208      -0.00000002       8.22281833       0.00302979       0.00001466       0.10863271
Si       1.78683208       3.09488391       5.05623624       0.00027254       0.00028873      -0.02898096
Si       3.57366413       0.00000002      12.64850174      -0.00109092      -0.00026534      -0.07989934
Si       3.57366413       0.00000002       2.52836107       0.00026354       0.00008485       0.24337857
Si       1.78683208       3.09488391      10.12062657      -0.00294597       0.00113051      -0.08005310
Si       0.02823781       3.08923156      15.16823131       0.00024040      -0.00053942       0.01536260
Si       0.00000000       3.09488393       7.58805938       0.00057747       0.00021777      -0.10109860
C        0.00000000       3.09488393       5.68435955      -0.00003908       0.00207617       0.09265819
C        0.00000000       3.09488393      13.27662505       0.02460006      -0.00105955      -0.07035721
C        1.78683208       3.09488391       3.15844319       0.00078239       0.00182934       0.09146802
C        3.57366413       0.00000002      10.75070869       0.00406877      -0.00194530       0.04511900
C        3.57366413       0.00000002       0.63055283       0.00429117       0.00022909      -0.20097953
C        1.78683208       3.09488391       8.22281833       0.00183063       0.00131332       0.10815423
Si      -0.89341603       1.54744195       5.05623624      -0.00033270       0.00026431      -0.02895345
Si      -1.78683208       3.09488395      12.64850174      -0.00195378       0.00099245      -0.07529141
Si      -1.78683208       3.09488395       2.52836107      -0.00025145       0.00019000       0.24343668
Si      -0.89341603       1.54744195      10.12062657       0.00517049      -0.00023860      -0.08243625
Si       2.65681308       1.55369731      15.16847379      -0.00385511       0.00042423       0.01708498
Si       2.68024811       1.54744196       7.58805938      -0.00022420       0.00032859      -0.10171490
C        2.68024811       1.54744196       5.68435955       0.00185711       0.00103281       0.09211517
C        2.68024811       1.54744196      13.27662505      -0.01488977       0.00667664      -0.05588987
C       -0.89341603       1.54744195       3.15844319      -0.00067620       0.00163599       0.09162872
C       -1.78683208       3.09488395      10.75070869       0.00242892       0.00413022       0.04596515
C       -1.78683208       3.09488395       0.63055283      -0.00230782       0.00376872      -0.20093968
C       -0.89341603       1.54744195       8.22281833      -0.00254462       0.00169461       0.10903277
C       -0.00016842       0.00032356      18.62323891       0.00000411       0.00000746      -0.00917215
C        1.34062836       0.77444674      18.62203402       0.00043477       0.00020877      -0.00499514
C       -1.34077665       2.32108688      18.62415902      -0.00042372       0.00017766      -0.00770097
C       -0.00006040       3.09520513      18.62037232       0.00017252      -0.00000051      -0.00362886
C        2.68018071       0.00071464      18.62259975       0.00028076       0.00051036      -0.00564691
C        4.01952809       0.77376074      18.61929364       0.00019772       0.00062581       0.00003934
C        1.34055512       2.32104192      18.61767212       0.00046897       0.00027716       0.00172187
C        2.67955833       3.09428324      18.60893001       0.00063995      -0.00005631       0.01101126
Si      -0.89341603       4.64232588       5.05623624      -0.00019797       0.00010876      -0.02902081
Si      -1.78683208       6.18976788      12.64850174      -0.00414950      -0.00016044      -0.08721722
Si      -1.78683208       6.18976788       2.52836107       0.00023500      -0.00003600       0.24343076
Si      -0.89341603       4.64232588      10.12062657       0.00237673      -0.00062092      -0.08310577
Si      -2.70920484       4.64535366      15.16817852      -0.00120945       0.00028719       0.01529652
Si      -2.68024811       4.64232589       7.58805938      -0.00042552       0.00001157      -0.10158454
C       -2.68024811       4.64232589       5.68435955      -0.00001646       0.00000900       0.09243964
C       -2.68024811       4.64232589      13.27662505      -0.02391897       0.00230988      -0.07035258
C       -0.89341603       4.64232588       3.15844319      -0.00008562       0.00086852       0.09131350
C       -1.78683208       6.18976788      10.75070869       0.00023603      -0.00096853       0.04357634
C       -1.78683208       6.18976788       0.63055283       0.00258164      -0.00134983      -0.20137394
C       -0.89341603       4.64232588       8.22281833      -0.00068468       0.00131461       0.10907185
Si      -0.89341603       7.73720981       5.05623624      -0.00009667      -0.00001440      -0.02902236
Si       0.89341603       4.64232591      12.64850174       0.00400372      -0.00203040      -0.13361355
Si       0.89341603       4.64232591       2.52836107      -0.00008408       0.00025248       0.24336983
Si      -0.89341603       7.73720981      10.12062657       0.00279376       0.00083664      -0.08242880
Si      -2.69812308       7.73446649      15.16832464      -0.00300665      -0.00132823       0.01507515
Si      -2.68024811       7.73720982       7.58805938      -0.00010773      -0.00026817      -0.10179614
C       -2.68024811       7.73720982       5.68435955       0.00183551      -0.00103307       0.09231160
C       -2.68024811       7.73720982      13.27662505      -0.01165224      -0.00310512      -0.06815609
C       -0.89341603       7.73720981       3.15844319       0.00084204      -0.00037770       0.09137521
C        0.89341603       4.64232591      10.75070869      -0.00012187      -0.00029516       0.03221129
C        0.89341603       4.64232591       0.63055283      -0.00008922       0.00279787      -0.20136623
C       -0.89341603       7.73720981       8.22281833       0.00016969      -0.00080321       0.10901195
Si      -3.57366413       6.18976784       5.05623624       0.00032782      -0.00014630      -0.02899793
Si      -4.46708018       7.73720984      12.64850174       0.00249423      -0.00018640      -0.12780542
Si      -4.46708018       7.73720984       2.52836107       0.00011287      -0.00035995       0.24347061
Si      -3.57366413       6.18976784      10.12062657      -0.00148610      -0.00179283      -0.08044930
Si       0.02005416       6.19496138      15.16895782       0.00355686       0.00040803       0.01687569
Si       0.00000000       6.18976786       7.58805938       0.00043889       0.00008665      -0.10124181
C        0.00000000       6.18976786       5.68435955      -0.00003548       0.00001646       0.09258363
C        0.00000000       6.18976786      13.27662505       0.01604677       0.00366125      -0.04770373
C       -3.57366413       6.18976784       3.15844319       0.00122256      -0.00155680       0.09143229
C       -4.46708018       7.73720984      10.75070869       0.00070371       0.00026302       0.03331430
C       -4.46708018       7.73720984       0.63055283       0.00214841      -0.00415053      -0.20076793
C       -3.57366413       6.18976784       8.22281833       0.00148070      -0.00108398       0.10828407
C       -2.68017725       4.64232653      18.62028025      -0.00050676      -0.00026302      -0.00315114
C       -1.33943168       5.41642944      18.62423596      -0.00014655      -0.00012110      -0.00797993
C       -4.02117801       6.96317730      18.62204514      -0.00018666      -0.00035635      -0.00476708
C       -2.68019932       7.73703325      18.62320698      -0.00010104       0.00013061      -0.00907574
C        0.00012033       4.64308996      18.62184189       0.00008485       0.00009256      -0.00399498
C        1.33921112       5.41618758      18.61757968       0.00038798      -0.00027639       0.00082815
C       -1.33954596       6.96275169      18.62535688      -0.00007456       0.00002828      -0.01052070
C        0.00002484       7.73616155      18.62459320      -0.00000848       0.00018023      -0.00917061
Si       7.14732829      -0.00000002       5.05623624      -0.00005759       0.00003754      -0.02898713
Si       6.25391224       1.54744198      12.64850174       0.00062349       0.00062015      -0.13000577
Si       6.25391224       1.54744198       2.52836107       0.00003111       0.00008305       0.24339759
Si       7.14732829      -0.00000002      10.12062657      -0.00399318      -0.00212707      -0.08057786
Si       5.38349608      -0.00524516      15.16828775       0.00371833      -0.00087289       0.01542379
Si       5.36049621       0.00000000       7.58805938       0.00032884      -0.00003060      -0.10115774
C        5.36049621       0.00000000       5.68435955       0.00000206      -0.00003522       0.09273275
C        5.36049621       0.00000000      13.27662505       0.01722948      -0.00288889      -0.06908451
C        7.14732829      -0.00000002       3.15844319      -0.00205688      -0.00026868       0.09141120
C        6.25391224       1.54744198      10.75070869      -0.00446498       0.00082969       0.03294740
C        6.25391224       1.54744198       0.63055283      -0.00209956       0.00127270      -0.20144568
C        7.14732829      -0.00000002       8.22281833      -0.00068340       0.00064843       0.10834937
Si       7.14732829       3.09488391       5.05623624       0.00005656       0.00007456      -0.02898816
Si       8.93416034       0.00000002      12.64850174      -0.00250940      -0.00044352      -0.08819912
Si       8.93416034       0.00000002       2.52836107      -0.00035687       0.00010722       0.24352024
Si       7.14732829       3.09488391      10.12062657      -0.00480591       0.00275442      -0.08069690
Si       5.38039491       3.10228658      15.16791100       0.00113668       0.00050111       0.01513377
Si       5.36049621       3.09488393       7.58805938       0.00028205       0.00018589      -0.10093071
C        5.36049621       3.09488393       5.68435955       0.00003240      -0.00002494       0.09268981
C        5.36049621       3.09488393      13.27662505       0.01449305       0.00668693      -0.07747608
C        7.14732829       3.09488391       3.15844319      -0.00103410       0.00067183       0.09145208
C        8.93416034       0.00000002      10.75070869       0.00064252      -0.00237004       0.04287829
C        8.93416034       0.00000002       0.63055283      -0.00459585       0.00010490      -0.20069440
C        7.14732829       3.09488391       8.22281833       0.00052451      -0.00034041       0.10850184
Si       4.46708018       1.54744195       5.05623624       0.00001980       0.00003497      -0.02901798
Si       3.57366413       3.09488395      12.64850174      -0.00154832       0.00247520      -0.09421550
Si       3.57366413       3.09488395       2.52836107       0.00006865      -0.00003728       0.24339040
Si       4.46708018       1.54744195      10.12062657       0.00382606       0.00115828      -0.08283066
Si       8.02224913       1.54455063      15.16887846      -0.00397904       0.00005579       0.01672425
Si       8.04074432       1.54744196       7.58805938      -0.00062966       0.00010207      -0.10204091
C        8.04074432       1.54744196       5.68435955      -0.00178666       0.00102870       0.09204164
C        8.04074432       1.54744196      13.27662505      -0.01626300      -0.00103615      -0.04904122
C        4.46708018       1.54744195       3.15844319       0.00120610       0.00047874       0.09135232
C        3.57366413       3.09488395      10.75070869       0.00387028       0.00217927       0.04194781
C        3.57366413       3.09488395       0.63055283       0.00213093       0.00101481      -0.20147421
C        4.46708018       1.54744195       8.22281833      -0.00015787       0.00021700       0.10907597
C        5.36045161      -0.00014443      18.62111677      -0.00009333       0.00056976      -0.00522834
C        6.70129710       0.77435955      18.62188130      -0.00015607       0.00045303      -0.00436059
C        4.01947790       2.32100746      18.61070444       0.00026097       0.00033656       0.01052121
C        5.36102002       3.09496501      18.60693924      -0.00023988       0.00007251       0.01166047
C        8.04083326       0.00100862      18.62456051      -0.00037898       0.00042706      -0.00894718
C        9.38018984       0.77443156      18.62531615      -0.00020312       0.00025017      -0.01024739
C        6.70134279       2.32107556      18.61736812      -0.00047951       0.00024683       0.00187562
C        8.04080559       3.09434238      18.62165085      -0.00053659      -0.00018435      -0.00310409
Si       4.46708018       4.64232588       5.05623624      -0.00027819      -0.00017252      -0.02898147
Si       3.57366413       6.18976788      12.64850174      -0.00370573      -0.00220678      -0.08225422
Si       3.57366413       6.18976788       2.52836107      -0.00005579      -0.00030082       0.24338808
Si       4.46708018       4.64232588      10.12062657       0.00272048      -0.00212116      -0.08198991
Si       2.66137228       4.63734071      15.16773611      -0.00087752      -0.00064997       0.01512246
Si       2.68024811       4.64232589       7.58805938      -0.00023423      -0.00005374      -0.10166862
C        2.68024811       4.64232589       5.68435955      -0.00004628       0.00002880       0.09229566
C        2.68024811       4.64232589      13.27662505      -0.01401611      -0.00407134      -0.08020711
C        4.46708018       4.64232588       3.15844319      -0.00005965      -0.00128349       0.09146931
C        3.57366413       6.18976788      10.75070869      -0.00236079      -0.00099527       0.04483798
C        3.57366413       6.18976788       0.63055283      -0.00198798      -0.00387928      -0.20113380
C        4.46708018       4.64232588       8.22281833      -0.00077724      -0.00049622       0.10863939
Si       4.46708018       7.73720981       5.05623624      -0.00031547      -0.00023886      -0.02895499
Si       6.25391224       4.64232591      12.64850174       0.00116805      -0.00127630      -0.15232218
Si       6.25391224       4.64232591       2.52836107      -0.00006222      -0.00004037       0.24331738
Si       4.46708018       7.73720981      10.12062657       0.00130406       0.00094257      -0.08295870
Si       2.65553217       7.73949034      15.16817489      -0.00359466       0.00073919       0.01551584
Si       2.68024811       7.73720982       7.58805938      -0.00074099      -0.00013215      -0.10156037
C        2.68024811       7.73720982       5.68435955      -0.00177355      -0.00105030       0.09239465
C        2.68024811       7.73720982      13.27662505      -0.02108999      -0.00064046      -0.07069711
C        4.46708018       7.73720981       3.15844319      -0.00098010      -0.00137323       0.09166317
C        6.25391224       4.64232591      10.75070869       0.00061706      -0.00324807       0.02748741
C        6.25391224       4.64232591       0.63055283      -0.00014707      -0.00236130      -0.20135029
C        4.46708018       7.73720981       8.22281833      -0.00126935      -0.00186816       0.10911273
Si       1.78683208       6.18976784       5.05623624       0.00013395      -0.00017458      -0.02899510
Si       0.89341603       7.73720984      12.64850174       0.00219778       0.00055099      -0.14590213
Si       0.89341603       7.73720984       2.52836107      -0.00015658      -0.00021829       0.24341354
Si       1.78683208       6.18976784      10.12062657      -0.00163908       0.00023706      -0.08072441
Si       5.38188702       6.18156540      15.16861415       0.00412019      -0.00091531       0.01700065
Si       5.36049621       6.18976786       7.58805938       0.00041163      -0.00050985      -0.10125416
C        5.36049621       6.18976786       5.68435955      -0.00001671      -0.00209236       0.09241445
C        5.36049621       6.18976786      13.27662505       0.01525333      -0.01013915      -0.05357459
C        1.78683208       6.18976784       3.15844319      -0.00083432      -0.00045920       0.09140735
C        0.89341603       7.73720984      10.75070869      -0.00089577       0.00197795       0.02909897
C        0.89341603       7.73720984       0.63055283      -0.00239858      -0.00143288      -0.20116388
C        1.78683208       6.18976784       8.22281833      -0.00049365      -0.00055124       0.10833652
C        2.67939604       4.64255573      18.60705100       0.00054482      -0.00041960       0.01091973
C        4.02074802       5.41664015      18.61081906       0.00027948      -0.00061038       0.01011369
C        1.33930993       6.96295682      18.62205559      -0.00003445      -0.00004551      -0.00520674
C        2.68012429       7.73734132      18.62121604       0.00010516      -0.00002571      -0.00574873
C        5.36097172       4.64331999      18.60891245      -0.00022883      -0.00046280       0.01142135
C        6.69992713       5.41635591      18.61762151      -0.00036073      -0.00043657       0.00225074
C        4.02087772       6.96348716      18.61941543      -0.00002365      -0.00053325      -0.00049134
C        5.36045522       7.73668580      18.62269218      -0.00001517      -0.00046254      -0.00586803
C        4.01995071       3.86832442      21.86179965      -0.00751122       0.00028771       0.02529837
O        5.19040733       3.77679289      21.85778157      -0.01542739       0.00133029       0.02123371
O        2.84941347       3.95984465      21.85500050       0.02293090      -0.00175118       0.02173919
