179
Lattice="10.720992125991367 0.0 0.0 -5.360496062995684 9.284647205911675 0.0 0.0 0.0 34.99999747733031" Properties=species:S:1:pos:R:3:forces:R:3 energy=-72984.14359103332 free_energy=-72984.14359103332 pbc="T T T"
Si       1.78683208      -0.00000002       5.05623624       0.00003677       0.00001825      -0.04650020
Si       0.89341603       1.54744198      12.64850174      -0.00045714       0.00191804      -0.07430642
Si       0.89341603       1.54744198       2.52836107       0.00012701       0.00002083       0.22341884
Si       1.78683208      -0.00000002      10.12062657      -0.00069137      -0.00089629      -0.07514203
Si      -0.00170068       0.00101380      15.17675389       0.00100350      -0.00100273       0.00073122
Si       0.00000000       0.00000000       7.58805938      -0.00009205      -0.00000668      -0.09378536
C        0.00000000       0.00000000       5.68435955      -0.00015015       0.00004859       0.08290342
C        0.00000000       0.00000000      13.27662505      -0.00161594       0.00161260       0.01853714
C        1.78683208      -0.00000002       3.15844319       0.00075076       0.00035327       0.08359145
C        0.89341603       1.54744198      10.75070869      -0.00155372       0.00010362       0.03203903
C        0.89341603       1.54744198       0.63055283       0.00073071       0.00138865      -0.26697281
C        1.78683208      -0.00000002       8.22281833       0.00053093      -0.00009359       0.10954262
Si       1.78683208       3.09488391       5.05623624       0.00002700       0.00003857      -0.04647063
Si       3.57366413       0.00000002      12.64850174       0.00071657       0.00045303      -0.07410382
Si       3.57366413       0.00000002       2.52836107      -0.00001620       0.00004782       0.22330160
Si       1.78683208       3.09488391      10.12062657      -0.00047951       0.00181083      -0.07473066
Si       0.00178694       3.09534444      15.17657890      -0.00122256       0.00011390       0.00056616
Si       0.00000000       3.09488393       7.58805938       0.00011133       0.00007816      -0.09368560
C        0.00000000       3.09488393       5.68435955       0.00009102       0.00047180       0.08287822
C        0.00000000       3.09488393      13.27662505       0.00282744       0.00215587       0.01386673
C        1.78683208       3.09488391       3.15844319       0.00050882       0.00074871       0.08329989
C        3.57366413       0.00000002      10.75070869       0.00111869      -0.00168742       0.03207040
C        3.57366413       0.00000002       0.63055283       0.00165502      -0.00002828      -0.26683037
C        1.78683208       3.09488391       8.22281833       0.00012856      -0.00026045       0.10922458
Si      -0.89341603       1.54744195       5.05623624      -0.00003625       0.00005914      -0.04648966
Si      -1.78683208       3.09488395      12.64850174       0.00047874       0.00060987      -0.07563491
Si      -1.78683208       3.09488395       2.52836107      -0.00006608       0.00000437       0.22319284
Si      -0.89341603       1.54744195      10.12062657       0.00148893       0.00034813      -0.07495717
Si       2.68225949       1.55074704      15.17765413      -0.00077827      -0.00139200      -0.00052810
Si       2.68024811       1.54744196       7.58805938       0.00007173       0.00021392      -0.09393808
C        2.68024811       1.54744196       5.68435955       0.00064123       0.00041575       0.08279698
C        2.68024811       1.54744196      13.27662505       0.00183037       0.00401298       0.04014520
C       -0.89341603       1.54744195       3.15844319      -0.00006711       0.00076567       0.08333357
C       -1.78683208       3.09488395      10.75070869       0.00131332       0.00248703       0.03153947
C       -1.78683208       3.09488395       0.63055283      -0.00075025       0.00156015      -0.26674475
C       -0.89341603       1.54744195       8.22281833      -0.00077596       0.00008048       0.10934233
C        0.04366058       0.07892619      18.62897136       0.00002700      -0.00059187       0.00091686
C        1.38426833       0.85277760      18.62933996      -0.00008305      -0.00041935      -0.00282333
C       -1.29716814       2.39997154      18.62999969       0.00025248      -0.00026817      -0.00028025
C        0.04342248       3.17443872      18.62610759       0.00024477      -0.00009924      -0.00234382
C        2.72418483       0.07937752      18.62967499      -0.00027408      -0.00021700      -0.00160051
C        4.06379531       0.85312369      18.62820104      -0.00034196       0.00011647      -0.00173369
C        1.38412610       2.39956897      18.62582911      -0.00018872      -0.00017484      -0.00419707
C        2.72425542       3.17203145      18.62054978      -0.00037127      -0.00010182      -0.00405309
Si      -0.89341603       4.64232588       5.05623624      -0.00001851       0.00003420      -0.04649120
Si      -1.78683208       6.18976788      12.64850174      -0.00034710      -0.00056359      -0.06968461
Si      -1.78683208       6.18976788       2.52836107       0.00013524      -0.00006325       0.22338336
Si      -0.89341603       4.64232588      10.12062657      -0.00003934      -0.00168742      -0.07503225
Si      -2.68292624       4.64088070      15.17680061       0.00272897      -0.00014835       0.00035147
Si      -2.68024811       4.64232589       7.58805938       0.00001877      -0.00007533      -0.09376736
C       -2.68024811       4.64232589       5.68435955      -0.00023886       0.00019618       0.08288388
C       -2.68024811       4.64232589      13.27662505      -0.00237056      -0.00173087       0.01860553
C       -0.89341603       4.64232588       3.15844319       0.00031033       0.00070114       0.08359145
C       -1.78683208       6.18976788      10.75070869      -0.00124004       0.00022600       0.03296617
C       -1.78683208       6.18976788       0.63055283       0.00076182      -0.00057027      -0.26704917
C       -0.89341603       4.64232588       8.22281833      -0.00015992       0.00048028       0.10941921
Si      -0.89341603       7.73720981       5.05623624       0.00006119      -0.00003060      -0.04649223
Si       0.89341603       4.64232591      12.64850174       0.00142979      -0.00073688      -0.08031046
Si       0.89341603       4.64232591       2.52836107      -0.00011056       0.00008510       0.22310388
Si      -0.89341603       7.73720981      10.12062657      -0.00050368       0.00141282      -0.07521608
Si      -2.68064812       7.73646601      15.17693630       0.00103435       0.00024246      -0.00019129
Si      -2.68024811       7.73720982       7.58805938       0.00004834      -0.00005888      -0.09383112
C       -2.68024811       7.73720982       5.68435955       0.00078856      -0.00048362       0.08298570
C       -2.68024811       7.73720982      13.27662505      -0.00020646      -0.00027974       0.02155716
C       -0.89341603       7.73720981       3.15844319       0.00033553       0.00025223       0.08320553
C        0.89341603       4.64232591      10.75070869       0.00088523      -0.00115160       0.03060641
C        0.89341603       4.64232591       0.63055283       0.00004191       0.00094334      -0.26693347
C       -0.89341603       7.73720981       8.22281833       0.00016327      -0.00076696       0.10948734
Si      -3.57366413       6.18976784       5.05623624       0.00001028      -0.00007276      -0.04649891
Si      -4.46708018       7.73720984      12.64850174      -0.00016352       0.00017663      -0.07243183
Si      -4.46708018       7.73720984       2.52836107      -0.00001440      -0.00012804       0.22322780
Si      -3.57366413       6.18976784      10.12062657       0.00112074      -0.00050908      -0.07514769
Si       0.00436853       6.18935492      15.17778470      -0.00247417      -0.00110660      -0.00018795
Si       0.00000000       6.18976786       7.58805938       0.00013035      -0.00003240      -0.09397896
C        0.00000000       6.18976786       5.68435955       0.00006891       0.00025762       0.08273141
C        0.00000000       6.18976786      13.27662505       0.00484602      -0.00094822       0.04243143
C       -3.57366413       6.18976784       3.15844319       0.00043580      -0.00032113       0.08315128
C       -4.46708018       7.73720984      10.75070869       0.00109246       0.00127912       0.03246892
C       -4.46708018       7.73720984       0.63055283       0.00077750      -0.00120328      -0.26673473
C       -3.57366413       6.18976784       8.22281833      -0.00005194      -0.00051242       0.10942101
C       -2.63632215       4.72111777      18.62915358      -0.00013215      -0.00053890       0.00020672
C       -1.29564267       5.49500993      18.62945819       0.00023217      -0.00008125       0.00114851
C       -3.97748089       7.04179979      18.63043123      -0.00038232      -0.00080244       0.00339437
C       -2.63633227       7.81602581      18.62903449      -0.00003291      -0.00024811       0.00205148
C        0.04363357       4.72184125      18.62657415      -0.00005271       0.00024708      -0.00089629
C        1.38239295       5.49549921      18.62464582      -0.00010927       0.00025994      -0.00288503
C       -1.29558215       7.04170388      18.63020653       0.00005065       0.00017843       0.00082404
C        0.04367897       7.81488111      18.63024725      -0.00003651       0.00024528      -0.00133800
Si       7.14732829      -0.00000002       5.05623624      -0.00005014      -0.00001594      -0.04649634
Si       6.25391224       1.54744198      12.64850174      -0.00142593       0.00122616      -0.07382229
Si       6.25391224       1.54744198       2.52836107       0.00007868      -0.00004782       0.22340135
Si       7.14732829      -0.00000002      10.12062657      -0.00086775      -0.00116265      -0.07526879
Si       5.35798652       0.00209400      15.17681620       0.00121330      -0.00129635       0.00042963
Si       5.36049621       0.00000000       7.58805938      -0.00003522       0.00008382      -0.09377662
C        5.36049621       0.00000000       5.68435955      -0.00024323       0.00015324       0.08288182
C        5.36049621       0.00000000      13.27662505      -0.00207771       0.00322596       0.01931284
C        7.14732829      -0.00000002       3.15844319      -0.00033296       0.00030982       0.08357397
C        6.25391224       1.54744198      10.75070869      -0.00154343       0.00041600       0.03214059
C        6.25391224       1.54744198       0.63055283      -0.00082018       0.00041858      -0.26694041
C        7.14732829      -0.00000002       8.22281833      -0.00045843       0.00009127       0.10966346
Si       7.14732829       3.09488391       5.05623624      -0.00004294       0.00001003      -0.04647860
Si       8.93416034       0.00000002      12.64850174       0.00070911      -0.00055562      -0.07269923
Si       8.93416034       0.00000002       2.52836107      -0.00014938       0.00007302       0.22328231
Si       7.14732829       3.09488391      10.12062657      -0.00073765       0.00140048      -0.07493249
Si       5.35959803       3.09350336      15.17658617       0.00049545       0.00050934       0.00006428
Si       5.36049621       3.09488393       7.58805938      -0.00001517       0.00004191      -0.09370925
C        5.36049621       3.09488393       5.68435955       0.00016995      -0.00017381       0.08283272
C        5.36049621       3.09488393      13.27662505      -0.00112949      -0.00007276       0.01374769
C        7.14732829       3.09488391       3.15844319      -0.00009616       0.00037770       0.08317982
C        8.93416034       0.00000002      10.75070869       0.00007096      -0.00173472       0.03235091
C        8.93416034       0.00000002       0.63055283      -0.00176301      -0.00010953      -0.26685608
C        7.14732829       3.09488391       8.22281833      -0.00017226      -0.00041523       0.10941458
Si       4.46708018       1.54744195       5.05623624       0.00001157       0.00001903      -0.04647809
Si       3.57366413       3.09488395      12.64850174       0.00012444       0.00098730      -0.07846004
Si       3.57366413       3.09488395       2.52836107      -0.00002237      -0.00004422       0.22341215
Si       4.46708018       1.54744195      10.12062657       0.00128452       0.00063095      -0.07482810
Si       8.04325030       1.55005062      15.17787418      -0.00310101      -0.00052373      -0.00052528
Si       8.04074432       1.54744196       7.58805938      -0.00005245       0.00012753      -0.09396945
C        8.04074432       1.54744196       5.68435955      -0.00043606       0.00060832       0.08272859
C        8.04074432       1.54744196      13.27662505       0.00251660       0.00224817       0.04415638
C        4.46708018       1.54744195       3.15844319       0.00046434       0.00038747       0.08319318
C        3.57366413       3.09488395      10.75070869       0.00156554       0.00207411       0.03105430
C        3.57366413       3.09488395       0.63055283       0.00101713       0.00065949      -0.26691650
C        4.46708018       1.54744195       8.22281833      -0.00012933      -0.00029696       0.10947552
C        5.40452470       0.07881598      18.62873010      -0.00019026       0.00036664      -0.00089089
C        6.74474436       0.85284660      18.63007712       0.00016172       0.00003882       0.00140331
C        4.06402417       2.39890579      18.62358693      -0.00073122       0.00005836      -0.00220395
C        5.40438414       3.17337969      18.62596748      -0.00038284      -0.00014424      -0.00149330
C        8.08458667       0.07937681      18.63020869       0.00015889      -0.00011261       0.00271483
C        9.42392838       0.85298158      18.63025200       0.00034144      -0.00042526       0.00195532
C        6.74483171       2.39953175      18.62983548      -0.00011493      -0.00008922       0.00024991
C        8.08451096       3.17284765      18.63053992       0.00004088      -0.00040958      -0.00024323
Si       4.46708018       4.64232588       5.05623624      -0.00002597      -0.00005991      -0.04648220
Si       3.57366413       6.18976788      12.64850174      -0.00150461      -0.00097573      -0.07805792
Si       3.57366413       6.18976788       2.52836107       0.00004114      -0.00009796       0.22330751
Si       4.46708018       4.64232588      10.12062657      -0.00102484      -0.00141411      -0.07486641
Si       2.67740514       4.64186540      15.17639372       0.00130895       0.00048208      -0.00019309
Si       2.68024811       4.64232589       7.58805938      -0.00002417      -0.00002005      -0.09363032
C        2.68024811       4.64232589       5.68435955      -0.00035378       0.00010207       0.08284583
C        2.68024811       4.64232589      13.27662505      -0.00226797      -0.00111637       0.01031038
C        4.46708018       4.64232588       3.15844319       0.00020183      -0.00001363       0.08349606
C        3.57366413       6.18976788      10.75070869      -0.00207565      -0.00034093       0.03131552
C        3.57366413       6.18976788       0.63055283      -0.00095028      -0.00167122      -0.26675632
C        4.46708018       4.64232588       8.22281833       0.00015812      -0.00025582       0.10928757
Si       4.46708018       7.73720981       5.05623624      -0.00003214      -0.00006865      -0.04648169
Si       6.25391224       4.64232591      12.64850174      -0.00044609      -0.00161311      -0.07555058
Si       6.25391224       4.64232591       2.52836107      -0.00009333       0.00004422       0.22346975
Si       4.46708018       7.73720981      10.12062657      -0.00116008       0.00075282      -0.07506541
Si       2.68132129       7.73255807      15.17679262      -0.00118991       0.00259501      -0.00039826
Si       2.68024811       7.73720982       7.58805938      -0.00008382      -0.00015632      -0.09374936
C        2.68024811       7.73720982       5.68435955      -0.00036407      -0.00037847       0.08284197
C        2.68024811       7.73720982      13.27662505       0.00048851      -0.00512369       0.01815327
C        4.46708018       7.73720981       3.15844319      -0.00023808      -0.00032499       0.08327855
C        6.25391224       4.64232591      10.75070869       0.00147736      -0.00159023       0.03177575
C        6.25391224       4.64232591       0.63055283       0.00003060      -0.00115494      -0.26705869
C        4.46708018       7.73720981       8.22281833      -0.00006839      -0.00079113       0.10935442
Si       1.78683208       6.18976784       5.05623624      -0.00004037      -0.00002468      -0.04647603
Si       0.89341603       7.73720984      12.64850174       0.00078753      -0.00070525      -0.07273857
Si       0.89341603       7.73720984       2.52836107      -0.00007148      -0.00011390       0.22341678
Si       1.78683208       6.18976784      10.12062657       0.00157531      -0.00065152      -0.07473374
Si       5.35943090       6.18954403      15.17786127       0.00108835       0.00106135      -0.00102124
Si       5.36049621       6.18976786       7.58805938      -0.00008793      -0.00011416      -0.09394245
C        5.36049621       6.18976786       5.68435955       0.00018383      -0.00038207       0.08283786
C        5.36049621       6.18976786      13.27662505      -0.00247649      -0.00265672       0.04321176
C        1.78683208       6.18976784       3.15844319      -0.00007919       0.00007379       0.08320913
C        0.89341603       7.73720984      10.75070869       0.00035481       0.00252097       0.03237662
C        0.89341603       7.73720984       0.63055283      -0.00085129      -0.00037384      -0.26692756
C        1.78683208       6.18976784       8.22281833      -0.00086800      -0.00012264       0.10926751
C        2.72389151       4.72170070      18.62078031      -0.00044120       0.00010670      -0.00487250
C        4.06490435       5.49508053      18.62782111      -0.00045097      -0.00036201      -0.00453337
C        1.38269646       7.04141655      18.62873444      -0.00019618       0.00011416      -0.00141642
C        2.72405670       7.81604248      18.62842031      -0.00000000      -0.00037384       0.00054019
C        5.40455902       4.72108734      18.62913789      -0.00049802      -0.00051756      -0.00264104
C        6.74368855       5.49487417      18.63058343      -0.00033013      -0.00086852       0.00054893
C        4.06484783       7.04200484      18.62997480      -0.00026662      -0.00074099      -0.00094308
C        5.40443902       7.81509380      18.63045623      -0.00001723      -0.00098448       0.00226977
C        2.61822101       3.79535475      21.78613200      -0.00155243       0.00367179       0.01124523
O        1.50826032       4.17775932      21.75387535       0.00447449      -0.01014172       0.01294088
O        3.72831682       3.41318080      21.80802887      -0.00087006       0.00867927       0.01011292
