101
Lattice="17.265850017958673 -0.00010359510010775204 0.0 -8.633011338229426 14.952692293502695 0.0 -0.0 0.0 15.000000722551901" Properties=species:S:1:pos:R:3:forces:R:3 energy=-26237.211079135635 free_energy=-26237.211079135635 pbc="T T T"
C        1.20434808       0.66219245       5.00958184       0.00209365      -0.00240038       0.00010593
C       -0.02872927       1.37409328       5.00960362      -0.00138788       0.00152466       0.00008408
C       -0.02880664       2.79833453       5.01507589       0.00612951      -0.00441561       0.00307864
C       -1.26196924       3.51024574       5.00946817      -0.00209956      -0.00118862       0.00414359
C       -1.26231605       4.93442776       5.01552832       0.00277988      -0.00435751       0.00239730
C       -2.49559180       5.64646047       5.00902254       0.00403406      -0.00889807       0.00176378
C       -2.49585084       7.07044662       5.01207816       0.00429734      -0.00115108       0.00134314
C       -3.72904176       7.78240494       5.00788850       0.00144470      -0.00411762      -0.00337252
C       -3.72926366       9.20644108       5.00591871       0.00253536       0.00068237      -0.00212733
C       -4.96258603       9.91841460       5.00377764       0.00298274      -0.00172470      -0.00074999
C       -4.96288177      11.34256865       4.99976051       0.00578395      -0.00120379       0.00123156
C       -6.19613098      12.05457272       5.00183027       0.00152544      -0.00292566       0.00133646
C       -6.19623724      13.47879460       5.00156637       0.00851241      -0.00681394       0.00148018
C       -7.42935675      14.19069946       5.00602882       0.00613311      -0.00109889      -0.00104798
C        3.67092114       0.66224893       5.00944458       0.00170387      -0.00307864       0.00421815
C        2.43781699       1.37424911       5.01503713      -0.00736904       0.00203683       0.00308841
C        2.43776573       2.79833634       5.02885380       0.00234048      -0.00031367       0.00044969
C        1.20452844       3.51036875       5.02887628      -0.00261481      -0.00115160       0.00041780
C        1.20440238       4.93441231       5.03998784      -0.00168407      -0.00271123      -0.00170181
C       -0.02912216       5.64637681       5.03131501       0.00635371      -0.00561272       0.00063609
C       -0.02933425       7.07024543       5.03522861      -0.00336249       0.00013755       0.00289275
C       -1.26261322       7.78237072       5.02162112       0.00378775      -0.00177586       0.00534609
C       -1.26258957       9.20637647       5.01871599      -0.00104438       0.00045714       0.00320668
C       -2.49595352       9.91841638       5.00785557       0.00151541       0.00274260       0.00031650
C       -2.49613945      11.34256984       5.00313584       0.00244281      -0.00150487       0.00279479
C       -3.72953881      12.05464753       4.99806516       0.00205508      -0.00027639       0.00313803
C       -3.72952594      13.47884043       4.99851844       0.00502265      -0.00554073       0.00301025
C       -4.96279190      14.19080732       5.00077286       0.00351547       0.00233919       0.00386514
C        6.13774622       0.66200659       5.00915325      -0.00769865      -0.00185248       0.00154883
C        4.90450901       1.37407374       5.01557755      -0.00755159      -0.00261738       0.00229162
C        4.90445766       2.79797814       5.03132836      -0.00804318       0.00471360       0.00088215
C        3.67112250       3.51031437       5.03996590      -0.00295420      -0.00736133      -0.00154729
C        3.67077924       4.93400337       5.05413331      -0.00208516       0.00054970      -0.00181726
C        2.43758894       5.64600956       5.05411609      -0.00061192      -0.00332701      -0.00176969
C        2.43710493       7.06976830       5.06063327      -0.00111843      -0.00194761      -0.00696820
C        1.20398051       7.78200434       5.05010097       0.00024066       0.00086826      -0.00250554
C        1.20407242       9.20613963       5.04567490      -0.00392016       0.00268372       0.00019360
C       -0.02926683       9.91828223       5.02757625      -0.00229831       0.00131281       0.00597961
C       -0.02941225      11.34235473       5.01895779      -0.00249526       0.00017818       0.00295523
C       -1.26272346      12.05450931       5.00733488      -0.00158894      -0.00344682       0.00082352
C       -1.26275762      13.47856263       5.00480815       0.00059392      -0.00317634      -0.00053428
C       -2.49597286      14.19068555       5.00215012       0.00045843      -0.00160514       0.00221655
C        8.60422802       0.66176818       5.00800239      -0.00224946      -0.00455111      -0.00326710
C        7.37112233       1.37374510       5.01225257      -0.00586237       0.00419475       0.00080064
C        7.37101449       2.79774897       5.02171254      -0.00309638       0.00082198       0.00542786
C        6.13767549       3.50972141       5.03528578       0.00095696      -0.00259990       0.00294854
C        6.13740884       4.93368701       5.05015698       0.00075539      -0.00025660      -0.00254231
C        4.90405098       5.64546260       5.06069952      -0.00177072      -0.00049828      -0.00730296
C        4.90430007       7.06979913       5.06737624       0.00532707      -0.00502316      -0.00795216
C        3.67046655       7.78213147       5.06734129      -0.00626012       0.00442795      -0.00776319
C        3.67074127       9.20647658       5.06307071       0.00216178       0.00186971      -0.01238809
C        2.43733822       9.91827237       5.05213820      -0.00164088       0.00014013      -0.00651312
C        2.43706626      11.34226044       5.03692659       0.00014707       0.00293749       0.00223763
C        1.20378287      12.05429313       5.02249513       0.00282230      -0.00124210       0.00472800
C        1.20371491      13.47831753       5.01271274       0.00460690      -0.00359029       0.00122667
C       -0.02938814      14.19037105       5.00776450       0.00275159       0.00362371      -0.00304496
C       11.07083296       0.66144056       5.00378422      -0.00230422      -0.00001877      -0.00040109
C        9.83759574       1.37353881       5.00599398      -0.00038798       0.00365174      -0.00235744
C        9.83754575       2.79761675       5.00791918       0.00106444       0.00274337       0.00026945
C        8.60420822       3.50973643       5.01875465       0.00209236      -0.00041626       0.00346096
C        8.60407849       4.93377648       5.02757885       0.00394022      -0.00125418       0.00592254
C        7.37069848       5.64579594       5.04567433       0.00425878       0.00026919       0.00028642
C        7.37080339       7.06993682       5.05208825       0.00021829      -0.00185222      -0.00653574
C        6.13763042       7.78219904       5.06307273       0.00324396       0.00336737      -0.01254904
C        6.13722530       9.20602145       5.05711485      -0.00247134       0.00377284      -0.00784341
C        4.90401635       9.91801299       5.05713628       0.00485836      -0.00079807      -0.00758373
C        4.90369443      11.34172947       5.04145362       0.00080450       0.00671161       0.00024863
C        3.67031292      12.05400125       5.03234167       0.00901454      -0.00340234       0.00474137
C        3.67030154      13.47795755       5.01625413       0.00635860       0.00046434       0.00576673
C        2.43707922      14.19007968       5.01019328       0.00824784       0.00249783       0.00162442
C       13.53758867       0.66125739       5.00184253      -0.00469329      -0.00307607       0.00149124
C       12.30433511       1.37324289       4.99976189      -0.00353450       0.00614905       0.00136603
C       12.30436990       2.79743035       4.99809305      -0.00335837      -0.00021417       0.00312723
C       11.07097223       3.50953382       5.00318406      -0.00163368       0.00127038       0.00255465
C       11.07083055       4.93367945       5.00733996      -0.00179617      -0.00316529       0.00083715
C        9.83747064       5.64567070       5.01893904      -0.00061141      -0.00009410       0.00282384
C        9.83741854       7.06968027       5.02239068      -0.00232505      -0.00039981       0.00490129
C        8.60414825       7.78169553       5.03678961       0.00141231       0.00269169       0.00249834
C        8.60388844       9.20562376       5.03218202      -0.00542786       0.00509618       0.00497431
C        7.37039140       9.91761392       5.04134630       0.00317300       0.00364968       0.00042783
C        7.37026346      11.34164020       5.02970724       0.00140099       0.00199698       0.00368182
C        6.13698836      12.05365723       5.02977511       0.00125573       0.00236362       0.00326350
C        6.13697804      13.47776226       5.01612193       0.00562377      -0.00329898       0.00245669
C        4.90386447      14.18978963       5.01050094       0.00006171       0.00467864       0.00379418
C       16.00414367       0.66132211       5.00605885      -0.00671855       0.00206845      -0.00108938
C       14.77101686       1.37324712       5.00160418      -0.00796245       0.00560809       0.00138762
C       14.77095286       2.79747418       5.00080477      -0.00247674       0.00281613       0.00377746
C       13.53770150       3.50951753       4.99852461      -0.00489461       0.00122205       0.00301539
C       13.53743618       4.93370241       5.00209013      -0.00393867       0.00160463       0.00223017
C       12.30410170       5.64567858       5.00476207      -0.00155835      -0.00157094      -0.00062812
C       12.30391925       7.06972447       5.00769456      -0.00229779       0.00404589      -0.00329513
C       11.07067004       7.78161963       5.01261978      -0.00386694       0.00228648       0.00136988
C       11.07041983       9.20565026       5.01014148      -0.00330078       0.00718803       0.00131409
C        9.83710644       9.91760168       5.01614640      -0.00438990       0.00460999       0.00591328
C        9.83676172      11.34180822       5.01044870       0.00339129       0.00130535       0.00372990
C        8.60357491      12.05367109       5.01607283      -0.00632183       0.00503036       0.00238958
C        8.60351039      13.47793317       5.01064227       0.00191470      -0.00221886      -0.00346533
C        7.37041318      14.18983307       5.01065249      -0.00122076       0.00287089      -0.00331595
C        4.31959976       7.48107833       8.30284936       0.00199209       0.00365637       0.00158714
O        3.73302837       6.46536552       8.31035111      -0.00862528      -0.01501241      -0.02325974
O        4.90619935       8.49686397       8.30719845       0.00478611       0.00822136      -0.02459903
