48
Lattice="8.315575849598094 0.0 0.0 4.157787924799047 7.20149657514819 0.0 0.0 0.0 19.999999365264614" Properties=species:S:1:pos:R:3:forces:R:3 energy=-280419.37438540865 free_energy=-280419.37438540865 pbc="T T T"
Pt       3.00284680       1.20024997       7.73678695       0.00049854      -0.07467409      -0.43031757
Pt       5.77470538       1.20024997       7.73678695      -0.00032242      -0.07459722      -0.43040781
Pt       8.54656396       1.20024997       7.73678695      -0.00133312      -0.07472243      -0.43051091
Pt       4.38877609       3.60074992       7.73678695      -0.00075796      -0.07482064      -0.42966451
Pt       7.16063467       3.60074992       7.73678695      -0.00006479      -0.07486924      -0.42979563
Pt       9.93249325       3.60074992       7.73678695      -0.00041832      -0.07373333      -0.42952772
Pt       5.77470538       6.00124987       7.73678695      -0.00038258      -0.07631523      -0.42933643
Pt       8.54656396       6.00124987       7.73678695      -0.00048877      -0.07390199      -0.43126399
Pt      11.31842254       6.00124987       7.73678695      -0.00025377      -0.07385725      -0.43140540
Pt       1.61691751       2.00041662      10.00000000      -0.00022806       0.07414702       0.43375616
Pt       4.38877609       2.00041662      10.00000000      -0.00247597       0.07515412       0.42651105
Pt       7.16063467       2.00041662      10.00000000       0.00155063       0.07517160       0.42646322
Pt       3.00284680       4.40091657      10.00000000      -0.00166942       0.07380506       0.43279611
Pt       5.77470538       4.40091657      10.00000000      -0.00038129       0.07629234       0.42386641
Pt       8.54656396       4.40091657      10.00000000       0.00098010       0.07394981       0.43256728
Pt       4.38877609       6.80141652      10.00000000       0.00071528       0.07510424       0.42794521
Pt       7.16063467       6.80141652      10.00000000      -0.00133543       0.07508855       0.42803854
Pt       9.93249325       6.80141652      10.00000000      -0.00047334       0.07311986       0.43185020
Pt       1.61694965       0.66988344      12.34956856       0.00147530      -0.00143108       0.00123542
Pt       4.38905338       0.67003601      12.34857132      -0.00009642      -0.00221218       0.00442744
Pt       7.16039767       0.67005369      12.34860578       0.00302490      -0.00229497       0.00428166
Pt       3.00279354       3.06993785      12.34944739       0.00081041       0.00035841       0.00000309
Pt       5.77476650       3.07171515      12.34819709       0.00139765      -0.00480308       0.00543968
Pt       8.54676048       3.06991540      12.34939668       0.00151155       0.00067260       0.00098293
Pt       4.38832465       5.47153057      12.34878578       0.00308892      -0.00390191       0.00624675
Pt       7.16127996       5.47147695      12.34876255      -0.00069266      -0.00332058       0.00674220
Pt       9.93259398       5.47013826      12.34918880       0.00080321       0.00135574       0.00492880
C        1.61767179       1.40568021      14.39925596       0.00024348       0.00057747      -0.00633777
C        3.00356323       2.23304810      14.41062732      -0.00017715       0.00140845      -0.00376692
C        3.00351034       3.80493975      14.39887757       0.00032910       0.00034478      -0.00462259
C        4.38898433       4.63344774      14.41018988       0.00050419      -0.00047565       0.00243149
C        4.38926646       6.20630212      14.39815032       0.00098242       0.00104695      -0.00043992
C        5.77556227       7.03424783      14.41074107      -0.00009667       0.00100762       0.00270814
C        4.38900941       1.40467180      14.39634532      -0.00073765       0.00083252      -0.00027665
C        5.77559671       2.23154929      14.40738673      -0.00054610      -0.00046923       0.00633546
C        5.77552957       3.80706208      14.39489363      -0.00058801      -0.00173935       0.00327944
C        7.16220020       4.63347572      14.41029995      -0.00128247      -0.00082275       0.00132669
C        7.16173983       6.20632435      14.39818536      -0.00143956       0.00074228      -0.00072942
C        8.54747345       7.03325614      14.41113236      -0.00133157       0.00152441       0.00012598
C        7.16199370       1.40468048      14.39642497       0.00014578       0.00081530      -0.00050137
C        8.54754019       2.23305990      14.41075145       0.00026919       0.00129532      -0.00464110
C        8.54746258       3.80495758      14.39894787      -0.00026251       0.00027099      -0.00498974
C        9.93333360       4.63223436      14.41214293       0.00016635       0.00158251      -0.00588500
C        9.93326913       6.20531795      14.39861201       0.00004885       0.00221989      -0.00321979
C       11.31922535       7.03323443      14.41112303       0.00107241       0.00177843       0.00031162
C        5.77431732       2.82500614      17.64709071      -0.00378338       0.00059213      -0.00219701
O        6.94860087       2.82808652      17.64547592       0.00085746       0.00135369      -0.00257265
O        4.60000211       2.82178149      17.64341862       0.00114414       0.00135009      -0.00219135
