48
Lattice="8.315575849598094 0.0 0.0 4.157787924799047 7.20149657514819 0.0 0.0 0.0 19.999999365264614" Properties=species:S:1:pos:R:3:forces:R:3 energy=-281406.76926598063 free_energy=-281406.76926598063 pbc="T T T"
Pt       3.00284680       1.20024997       4.65800846      -0.00022986      -0.08101957      -0.51544499
Pt       5.77470538       1.20024997       4.65800846      -0.00003342      -0.08237017      -0.51232393
Pt       8.54656396       1.20024997       4.65800846       0.00014321      -0.08100235      -0.51544011
Pt       4.38877609       3.60074992       4.65800846       0.00052785      -0.08115301      -0.51170661
Pt       7.16063467       3.60074992       4.65800846      -0.00059213      -0.08117770      -0.51170944
Pt       9.93249325       3.60074992       4.65800846      -0.00007225      -0.08200636      -0.51285409
Pt       5.77470538       6.00124987       4.65800846      -0.00002880      -0.07937355      -0.51149038
Pt       8.54656396       6.00124987       4.65800846       0.00028642      -0.08178782      -0.51292711
Pt      11.31842254       6.00124987       4.65800846      -0.00037795      -0.08176854      -0.51288623
Pt       1.61691751       2.00041662       6.92122151       0.00034710       0.07863462       0.51147187
Pt       4.38877609       2.00041662       6.92122151      -0.00047617       0.07813968       0.50809729
Pt       7.16063467       2.00041662       6.92122151       0.00109889       0.07813711       0.50780110
Pt       3.00284680       4.40091657       6.92122151       0.00076747       0.08350275       0.50210251
Pt       5.77470538       4.40091657       6.92122151       0.00031676       0.08157802       0.50701692
Pt       8.54656396       4.40091657       6.92122151      -0.00011107       0.08349863       0.50181043
Pt       4.38877609       6.80141652       6.92122151       0.00284750       0.08168369       0.51396635
Pt       7.16063467       6.80141652       6.92122151      -0.00214661       0.08173151       0.51394475
Pt       9.93249325       6.80141652       6.92122151       0.00029002       0.08207398       0.50397144
Pt       1.61753232       0.69961086       9.28557334      -0.00022497      -0.01136788      -0.01585085
Pt       4.38800671       0.69675188       9.28415468       0.00153546       0.00420350       0.00722429
Pt       7.16260697       0.69692976       9.28414628      -0.00164628       0.00106289       0.00756341
Pt       3.00402301       3.09922693       9.28320640      -0.01120332      -0.00004294       0.01055669
Pt       5.77542734       3.09453113       9.28314990      -0.00268655       0.02199733      -0.00269889
Pt       8.54644505       3.09929063       9.28318328       0.01377726      -0.00131538       0.01091819
Pt       4.39081294       5.49700294       9.28379027      -0.01132237       0.01748916       0.00328844
Pt       7.15997033       5.49690099       9.28376667       0.00821519       0.01912438       0.00347536
Pt       9.93296521       5.50008051       9.28329568       0.00266701      -0.00112974       0.01181036
C        1.61736964       1.42898740      11.33975759       0.00017998       0.00471103       0.01748890
C        3.00363058       2.25774311      11.35611592      -0.00065357      -0.00439839       0.00205714
C        3.00335124       3.83048749      11.34058264       0.00315449      -0.00401066       0.00335632
C        4.38976902       4.65713241      11.35357511       0.00190750       0.00131152       0.00379521
C        4.39000954       6.22947711      11.34250462      -0.00201472       0.00376050      -0.00712350
C        5.77527709       7.05597476      11.35726059       0.00000823       0.01786557      -0.00203040
C        4.38874415       1.43082373      11.34227477       0.00521780      -0.00770920      -0.00745594
C        5.77526668       2.25853607      11.35493050      -0.00005502      -0.00575567      -0.00259681
C        5.77516209       3.82917706      11.33656270       0.00008922      -0.00065409       0.00666918
C        7.16078517       4.65714203      11.35356878      -0.00199363       0.00123824       0.00411428
C        7.16033005       6.22945656      11.34247538       0.00229805       0.00423306      -0.00655683
C        8.54621608       7.05904850      11.35615564       0.00703660      -0.01035538      -0.00722351
C        7.16159520       1.43085413      11.34226974      -0.00548622      -0.00820902      -0.00741326
C        8.54690270       2.25778243      11.35611750       0.00078110      -0.00501725       0.00230808
C        8.54699667       3.83049591      11.34056187      -0.00333318      -0.00407751       0.00395076
C        9.93307832       4.65842825      11.35607541      -0.00017381      -0.00741583      -0.00889936
C        9.93297642       6.23171159      11.33892793      -0.00020440      -0.01266757       0.02546446
C       11.31993166       7.05906992      11.35616597      -0.00737855      -0.01084286      -0.00724588
C        5.77265955       3.69536507      15.73070371      -0.00043632       0.00744771      -0.01898580
O        5.77287463       3.54591752      16.89295267      -0.00028616      -0.00568317       0.00037590
O        5.77257756       3.84482403      14.56355608      -0.00032576      -0.00111277       0.01626403
