101
Lattice="17.265850017958673 -0.00010359510010775204 0.0 -8.633011338229426 14.952692293502695 0.0 -0.0 0.0 15.000000722551901" Properties=species:S:1:pos:R:3:forces:R:3 energy=-26089.68967507173 free_energy=-26089.68967507173 pbc="T T T"
C        1.20512871       0.66339540       5.01320171      -0.00217412      -0.00196767      -0.00138325
C       -0.02821413       1.37542351       5.01322416      -0.00071194      -0.00234562      -0.00126035
C       -0.02820031       2.79952291       5.00770254      -0.00496969       0.00034890       0.00290406
C       -1.26144128       3.51179102       5.00742974      -0.00389651      -0.00768657      -0.00030648
C       -1.26164329       4.93578336       4.99989492       0.00402275       0.00136628      -0.00985555
C       -2.49482555       5.64802730       4.99568033       0.00342779      -0.00329384       0.00687873
C       -2.49470641       7.07202138       4.98920563       0.00071502      -0.00213247      -0.00476940
C       -3.72793183       7.78398216       4.98840622      -0.00598347      -0.00035661       0.01313577
C       -3.72794910       9.20796587       4.99223924      -0.00123439      -0.00440661      -0.00304341
C       -4.96136272       9.91973154       4.99982758       0.00009667       0.01038546      -0.00028154
C       -4.96118143      11.34390518       5.00741592      -0.00152261      -0.00328947       0.00128529
C       -6.19454671      12.05580899       5.01364026       0.00031856       0.00693632       0.00266675
C       -6.19452254      13.48002061       5.01595043      -0.00156966      -0.00472337      -0.00840262
C       -7.42791889      14.19192786       5.01616798       0.00262715       0.00708647       0.01244080
C        3.67187998       0.66360777       5.00742456      -0.00492880      -0.00764955      -0.00034144
C        2.43841801       1.37546322       5.00770426       0.00250271      -0.00369905       0.00319845
C        2.43843528       2.79939169       5.00146438      -0.00516689       0.00718366       0.00130304
C        1.20495605       3.51148714       5.00141949       0.00870910      -0.00064586       0.00129455
C        1.20494396       4.93550193       4.99623801      -0.00247829       0.00397364       0.00270891
C       -0.02834017       5.64778558       4.99493099       0.00819796      -0.00439556       0.00343422
C       -0.02814679       7.07182109       4.99127753       0.00020723       0.00099219      -0.00437036
C       -1.26142401       7.78384921       4.98804364       0.00563894       0.00630023       0.00873404
C       -1.26116157       9.20796587       4.98922808      -0.00021726      -0.00663833      -0.00351624
C       -2.49454756       9.91977816       4.99201133       0.00161157       0.01152677       0.00430788
C       -2.49453375      11.34402432       4.99778503       0.00394690      -0.00719395      -0.00299251
C       -3.72774709      12.05591258       5.00612962      -0.00360700       0.00980362      -0.01481033
C       -3.72754335      13.48028305       5.00742801      -0.01188184      -0.01136993       0.00153881
C       -4.96112273      14.19205908       5.01195857       0.00110377       0.00668924      -0.00435031
C        6.13855010       0.66359568       4.99577011      -0.00456602       0.00073816       0.00687410
C        4.90517101       1.37545286       4.99996916      -0.00133980       0.00448683      -0.00972751
C        4.90514511       2.79952463       4.99503113      -0.00802621       0.00533375       0.00359415
C        3.67165725       3.51140599       4.99629326       0.00487584      -0.00006891       0.00256905
C        3.67171595       4.93545359       4.99487746      -0.00256519       0.00445238       0.00376127
C        2.43822636       5.64753523       4.99501732       0.00522114      -0.00073739       0.00407674
C        2.43821255       7.07166052       4.99699253      -0.00238676      -0.00037152      -0.00257059
C        1.20510626       7.78384576       4.99403489       0.00362860       0.00357486       0.00293774
C        1.20544985       9.20801249       4.99561989      -0.00213222      -0.00710961       0.00141282
C       -0.02785327       9.91984377       4.99226687      -0.00017046       0.00965989       0.00069625
C       -0.02786536      11.34408993       4.99367058      -0.00042552      -0.01174197      -0.00098422
C       -1.26118056      12.05598337       4.99478941      -0.00018435       0.00515635       0.00164448
C       -1.26117883      13.48025024       4.99461330      -0.00155783      -0.01017077       0.00187613
C       -2.49438181      14.19232670       5.00006930      -0.00219649      -0.00249886      -0.01098504
C        8.60485937       0.66366474       4.98850636       0.00236799      -0.00580015       0.01323090
C        7.37168747       1.37570494       4.98939901      -0.00281793       0.00001594      -0.00467658
C        7.37146819       2.79968693       4.98830608       0.00273025       0.00797556       0.00874098
C        6.13824450       3.51177548       4.99141566      -0.00016918       0.00073816      -0.00445495
C        6.13820997       4.93576610       4.99375518       0.00133543       0.00522834       0.00250785
C        4.90498627       5.64753695       4.99622420       0.00097573      -0.00209725      -0.00275597
C        4.90511231       7.07159836       5.00013664      -0.00015555       0.00279042       0.00306347
C        3.67161926       7.78390101       5.00126237       0.00295445       0.00039081       0.00191213
C        3.67145524       9.20807637       5.00545107       0.00332624      -0.00048260       0.00284981
C        2.43857341       9.91993183       5.00282666      -0.00184528       0.00545382      -0.00632337
C        2.43854405      11.34391900       5.00411124       0.00029388      -0.00734976       0.00128607
C        1.20538251      12.05590222       4.99704433      -0.00077519       0.00323548       0.00120250
C        1.20515115      13.48001888       4.99486365       0.00714201      -0.00578370       0.00617785
C       -0.02797068      14.19216441       4.99103236       0.00020106       0.00417856       0.00114568
C       11.07119281       0.66327971       4.99991219       0.00903768       0.00497071      -0.00016686
C        9.83808479       1.37560308       4.99237737      -0.00303982      -0.00321696      -0.00292334
C        9.83778782       2.79966967       4.99220126       0.00914747       0.00756881       0.00458325
C        8.60465563       3.51193260       4.98945599      -0.00595210      -0.00350313      -0.00333369
C        8.60443808       4.93593358       4.99232039       0.00779250       0.00539880       0.00037795
C        7.37133697       5.64806011       4.99525731      -0.00607629      -0.00556130       0.00116728
C        7.37129381       7.07183663       5.00176826       0.00458968       0.00070885      -0.00541192
C        6.13837399       7.78353670       5.00416994      -0.00269452       0.00168613       0.00155115
C        6.13814436       9.20776213       5.01309984       0.00211756      -0.00309818      -0.00100453
C        4.90473419       9.92006478       5.01301006      -0.00392993       0.00006531      -0.00138557
C        4.90480325      11.34414691       5.01685862       0.00076567      -0.00464984      -0.00188153
C        3.67156747      12.05581762       5.01120750       0.00318868       0.00112923       0.00336146
C        3.67157092      13.47980824       5.00994192       0.00431405      -0.00071297      -0.00528233
C        2.43843701      14.19186571       5.00080483      -0.00511264       0.00455394       0.00453928
C       13.53766265       0.66330216       5.01365753       0.00617270       0.00329770       0.00270429
C       12.30446658       1.37550293       5.00748844      -0.00179617      -0.00252097       0.00131795
C       12.30434054       2.79969211       5.00620386       0.01031424       0.00212939      -0.01430356
C       11.07122043       3.51176685       4.99791625      -0.00800719       0.00020055      -0.00294957
C       11.07107713       4.93585588       4.99487401       0.00510673       0.00286087       0.00173241
C        9.83789487       5.64798587       4.99367921      -0.00995017      -0.00622130      -0.00083458
C        9.83774638       7.07189361       4.99696145       0.00368542       0.00084641       0.00085952
C        8.60451405       7.78380086       5.00367614      -0.00654603      -0.00442075       0.00052862
C        8.60463319       9.20765336       5.01118333       0.00013627       0.00347690       0.00341777
C        7.37165812       9.91996291       5.01723156      -0.00447089      -0.00161002      -0.00203683
C        7.37144057      11.34402604       5.02022891       0.00127321      -0.00452334       0.00545640
C        6.13811155      12.05600064       5.02002690      -0.00513012      -0.00091943       0.00512215
C        6.13798551      13.48003960       5.01924994       0.00479871      -0.00397621      -0.00145396
C        4.90481016      14.19189506       5.01464859      -0.00363811       0.00247263       0.00921509
C       16.00429133       0.66322446       5.01623705       0.00451563       0.00537952       0.01232895
C       14.77105210       1.37540970       5.01602295      -0.00325810      -0.00322288      -0.00847333
C       14.77098131       2.79959197       5.01202245       0.00525148       0.00456834      -0.00438116
C       13.53777488       3.51203619       5.00750053      -0.00353578      -0.01526258       0.00147273
C       13.53781286       4.93600609       5.00010038      -0.00116445      -0.00247983      -0.01114368
C       12.30452528       5.64797378       4.99465991      -0.00759941      -0.00597936       0.00186225
C       12.30446140       7.07191951       4.99104617       0.00402480       0.00292180       0.00100119
C       11.07117036       7.78377842       4.99486538      -0.00832215       0.00308301       0.00611768
C       11.07106850       9.20777422       5.00077030       0.00689801      -0.00217772       0.00432562
C        9.83787242       9.91971773       5.00997990      -0.00221912       0.00304059      -0.00546179
C        9.83790523      11.34379986       5.01471420       0.00424386      -0.00189156       0.00931768
C        8.60483347      12.05585906       5.01935526      -0.00600533       0.00258756      -0.00166890
C        8.60461074      13.47987903       5.01874405       0.00534532       0.00012676       0.00459970
C        7.37134043      14.19184844       5.01876477      -0.00260813       0.00522320       0.00443592
C        5.03595119       8.51271153       8.49877281       0.02476461      -0.02271981      -0.01843995
O        4.19154063       9.32715376       8.53584949      -0.01747939       0.01605345      -0.02039990
O        5.88079859       7.69800168       8.46612826      -0.00547079       0.00432125      -0.01368804
