179
Lattice="10.720992125991367 0.0 0.0 -5.360496062995684 9.284647205911675 0.0 0.0 0.0 34.99999747733031" Properties=species:S:1:pos:R:3:forces:R:3 energy=-74887.8483238877 free_energy=-74887.8483238877 pbc="T T T"
Si       1.78683208      -0.00000002       5.05623624      -0.00003368       0.00004808      -0.05923642
Si       0.89341603       1.54744198      12.64850174      -0.00154446       0.00016944       0.04983364
Si       0.89341603       1.54744198       2.52836107       0.00008870       0.00007816       0.14679893
Si       1.78683208      -0.00000002      10.12062657       0.00161002      -0.00151464      -0.07378166
Si      -0.01509923      -0.00774675      15.19422071      -0.00226900      -0.00128118       0.00101533
Si       0.00000000       0.00000000       7.58805938      -0.00026739      -0.00013498      -0.09431526
C        0.00000000       0.00000000       5.68435955      -0.00003265       0.00007533       0.09145902
C        0.00000000       0.00000000      13.27662505      -0.01427065      -0.00726542       0.20145313
C        1.78683208      -0.00000002       3.15844319       0.00120713      -0.00002468       0.09290656
C        0.89341603       1.54744198      10.75070869       0.00059778       0.00066592       0.02934014
C        0.89341603       1.54744198       0.63055283       0.00129686       0.00223712      -0.46437080
C        1.78683208      -0.00000002       8.22281833       0.00067774       0.00031959       0.11052581
Si       1.78683208       3.09488391       5.05623624      -0.00010876      -0.00002597      -0.05922999
Si       3.57366413       0.00000002      12.64850174       0.00196227       0.00084538       0.00489538
Si       3.57366413       0.00000002       2.52836107       0.00010644       0.00004859       0.14675394
Si       1.78683208       3.09488391      10.12062657       0.00205791       0.00139225      -0.07364231
Si      -0.01226278       3.10123587      15.19436290      -0.00215767       0.00178769       0.00042989
Si       0.00000000       3.09488393       7.58805938      -0.00017792       0.00016018      -0.09442788
C        0.00000000       3.09488393       5.68435955       0.00001954       0.00135574       0.09140015
C        0.00000000       3.09488393      13.27662505      -0.01132005       0.00721991       0.20339791
C        1.78683208       3.09488391       3.15844319       0.00058673       0.00102176       0.09258080
C        3.57366413       0.00000002      10.75070869       0.00055022      -0.00116882       0.01886238
C        3.57366413       0.00000002       0.63055283       0.00254873       0.00009590      -0.46435460
C        1.78683208       3.09488391       8.22281833       0.00002828       0.00055176       0.11007664
Si      -0.89341603       1.54744195       5.05623624       0.00010824       0.00006685      -0.05920891
Si      -1.78683208       3.09488395      12.64850174       0.00167559       0.00090760       0.00567828
Si      -1.78683208       3.09488395       2.52836107      -0.00006582       0.00008767       0.14673234
Si      -0.89341603       1.54744195      10.12062657      -0.00207797      -0.00023397      -0.07285504
Si       2.69817864       1.54941788      15.19441136       0.00299611       0.00070602       0.00201523
Si       2.68024811       1.54744196       7.58805938       0.00040829       0.00011184      -0.09419468
C        2.68024811       1.54744196       5.68435955       0.00110892       0.00064535       0.09143923
C        2.68024811       1.54744196      13.27662505       0.01820778       0.00253614       0.20820099
C       -0.89341603       1.54744195       3.15844319      -0.00054482       0.00090631       0.09265536
C       -1.78683208       3.09488395      10.75070869      -0.00098910       0.00122076       0.01911975
C       -1.78683208       3.09488395       0.63055283      -0.00135523       0.00220549      -0.46473924
C       -0.89341603       1.54744195       8.22281833       0.00001723       0.00103024       0.10983907
C        0.03469339       0.10542708      18.96532299      -0.00276702      -0.00486941      -0.00650515
C        1.37477619       0.87921764      18.96615459       0.00118528      -0.00464444       0.00646684
C       -1.30660437       2.42571194      18.96799537       0.00477685      -0.00005914      -0.00325527
C        0.03410156       3.19984553      18.96653320       0.00198258      -0.00156734      -0.00747831
C        2.71479806       0.10545084      18.96682125      -0.00271586      -0.00153932       0.00068983
C        4.05442674       0.87874630      18.96642610       0.00077442       0.00169050      -0.00908525
C        1.37498312       2.42610281      18.96521605       0.00229445      -0.00266649      -0.00178589
C        2.71476360       3.19890247      18.96002706      -0.00098705      -0.00176043       0.00193707
Si      -0.89341603       4.64232588       5.05623624       0.00006016       0.00002777      -0.05922922
Si      -1.78683208       6.18976788      12.64850174       0.00072788      -0.00071348       0.00215561
Si      -1.78683208       6.18976788       2.52836107       0.00009076      -0.00001903       0.14673954
Si      -0.89341603       4.64232588      10.12062657      -0.00173138      -0.00040701      -0.07223514
Si      -2.66294022       4.64312844      15.19438024       0.00287681       0.00062863       0.00090503
Si      -2.68024811       4.64232589       7.58805938       0.00026945      -0.00001928      -0.09416537
C       -2.68024811       4.64232589       5.68435955       0.00000103       0.00008510       0.09156187
C       -2.68024811       4.64232589      13.27662505       0.01615630       0.00062452       0.20443870
C       -0.89341603       4.64232588       3.15844319       0.00000026       0.00068777       0.09263788
C       -1.78683208       6.18976788      10.75070869      -0.00081273      -0.00012341       0.01822526
C       -1.78683208       6.18976788       0.63055283       0.00125418      -0.00075308      -0.46442839
C       -0.89341603       4.64232588       8.22281833       0.00046743       0.00072916       0.11001776
Si      -0.89341603       7.73720981       5.05623624       0.00018229      -0.00002083      -0.05923745
Si       0.89341603       4.64232591      12.64850174      -0.00166685      -0.00092997       0.02854542
Si       0.89341603       4.64232591       2.52836107      -0.00004988       0.00008073       0.14673260
Si      -0.89341603       7.73720981      10.12062657      -0.00283104       0.00043580      -0.07294631
Si      -2.67065857       7.73585947      15.19443115       0.00125496      -0.00018383       0.00064226
Si      -2.68024811       7.73720982       7.58805938       0.00023063      -0.00006865      -0.09392266
C       -2.68024811       7.73720982       5.68435955       0.00120019      -0.00062349       0.09174365
C       -2.68024811       7.73720982      13.27662505       0.01006073      -0.00183474       0.20463564
C       -0.89341603       7.73720981       3.15844319       0.00049777      -0.00035970       0.09256537
C        0.89341603       4.64232591      10.75070869       0.00121767       0.00027459       0.02454941
C        0.89341603       4.64232591       0.63055283       0.00015375       0.00150358      -0.46459089
C       -0.89341603       7.73720981       8.22281833       0.00150795      -0.00061732       0.10990258
Si      -3.57366413       6.18976784       5.05623624      -0.00010439      -0.00013961      -0.05924413
Si      -4.46708018       7.73720984      12.64850174      -0.00217772       0.00054816       0.02728018
Si      -4.46708018       7.73720984       2.52836107       0.00002057      -0.00012496       0.14675651
Si      -3.57366413       6.18976784      10.12062657       0.00254231       0.00108166      -0.07373872
Si      -0.01418447       6.18320706      15.19448941      -0.00164679      -0.00118348       0.00219521
Si       0.00000000       6.18976786       7.58805938      -0.00023217      -0.00006813      -0.09451761
C        0.00000000       6.18976786       5.68435955      -0.00004371      -0.00006145       0.09132481
C        0.00000000       6.18976786      13.27662505      -0.01322550      -0.00620253       0.21005759
C       -3.57366413       6.18976784       3.15844319       0.00067774      -0.00120148       0.09255380
C       -4.46708018       7.73720984      10.75070869       0.00228160      -0.00049674       0.02422802
C       -4.46708018       7.73720984       0.63055283       0.00125444      -0.00218132      -0.46477960
C       -3.57366413       6.18976784       8.22281833      -0.00017869      -0.00141873       0.11030830
C       -2.64622132       4.74681057      18.96641940       0.00226206       0.00086980      -0.00822830
C       -1.30601911       5.52069575      18.96721166       0.00469098       0.00046074       0.00472209
C       -3.98639718       7.06860637      18.96466476       0.00004551      -0.00251274      -0.00398341
C       -2.64573946       7.84241776      18.96674323      -0.00231836      -0.00237956      -0.00657303
C        0.03394493       4.74703637      18.96650197       0.00165785       0.00072248      -0.00035918
C        1.37435772       5.52089302      18.96321357       0.00116162       0.00078110      -0.00888830
C       -1.30552155       7.06794479      18.96755039       0.00116625       0.00147736      -0.00106392
C        0.03476313       7.84114517      18.96703321      -0.00247160       0.00452231      -0.00019643
Si       7.14732829      -0.00000002       5.05623624      -0.00020877      -0.00007970      -0.05923796
Si       6.25391224       1.54744198      12.64850174      -0.00312415      -0.00007559       0.02782679
Si       6.25391224       1.54744198       2.52836107      -0.00001491       0.00003497       0.14675137
Si       7.14732829      -0.00000002      10.12062657       0.00179052       0.00063815      -0.07365156
Si       5.34662334       0.00738705      15.19434097      -0.00147453       0.00147710       0.00046640
Si       5.36049621       0.00000000       7.58805938      -0.00026482       0.00014192      -0.09444202
C        5.36049621       0.00000000       5.68435955       0.00000103       0.00008305       0.09145774
C        5.36049621       0.00000000      13.27662505      -0.01313654       0.00736930       0.20314620
C        7.14732829      -0.00000002       3.15844319      -0.00115648      -0.00005245       0.09269367
C        6.25391224       1.54744198      10.75070869       0.00012393       0.00024374       0.02436146
C        6.25391224       1.54744198       0.63055283      -0.00116985       0.00072788      -0.46448393
C        7.14732829      -0.00000002       8.22281833      -0.00174475      -0.00025274       0.11040368
Si       7.14732829       3.09488391       5.05623624      -0.00017149       0.00007482      -0.05922973
Si       8.93416034       0.00000002      12.64850174       0.00184759      -0.00152081       0.00042089
Si       8.93416034       0.00000002       2.52836107      -0.00012110       0.00002237       0.14682259
Si       7.14732829       3.09488391      10.12062657       0.00155757      -0.00069934      -0.07382434
Si       5.34610580       3.08694495      15.19412148      -0.00296500      -0.00055690       0.00197358
Si       5.36049621       3.09488393       7.58805938      -0.00025017      -0.00015658      -0.09437826
C        5.36049621       3.09488393       5.68435955       0.00001825       0.00004422       0.09131967
C        5.36049621       3.09488393      13.27662505      -0.01359522      -0.00743537       0.20077205
C        7.14732829       3.09488391       3.15844319      -0.00062838       0.00025531       0.09251755
C        8.93416034       0.00000002      10.75070869      -0.00174809      -0.00010207       0.01772441
C        8.93416034       0.00000002       0.63055283      -0.00253665       0.00004191      -0.46466210
C        7.14732829       3.09488391       8.22281833      -0.00092200       0.00047411       0.11015506
Si       4.46708018       1.54744195       5.05623624       0.00012650      -0.00000746      -0.05923796
Si       3.57366413       3.09488395      12.64850174       0.00167893      -0.00105647      -0.00017484
Si       3.57366413       3.09488395       2.52836107       0.00005939      -0.00001286       0.14662513
Si       4.46708018       1.54744195      10.12062657      -0.00087880       0.00030030      -0.07207265
Si       8.05021567       1.54631993      15.19458739       0.00139045      -0.00021777       0.00138865
Si       8.04074432       1.54744196       7.58805938       0.00011750       0.00004319      -0.09397048
C        8.04074432       1.54744196       5.68435955      -0.00121999       0.00065023       0.09167525
C        8.04074432       1.54744196      13.27662505       0.00774622      -0.00049777       0.21065897
C        4.46708018       1.54744195       3.15844319       0.00062992       0.00027974       0.09259442
C        3.57366413       3.09488395      10.75070869       0.00027896       0.00142105       0.01790439
C        3.57366413       3.09488395       0.63055283       0.00126575       0.00082044      -0.46481457
C        4.46708018       1.54744195       8.22281833       0.00083895       0.00021469       0.10964521
C        5.39507350       0.10444202      18.96654304      -0.00181340       0.00355661      -0.00655606
C        6.73506633       0.87795288      18.96631159       0.00206794       0.00396696       0.00555641
C        4.05421824       2.42568951      18.96172203       0.00235744      -0.00031779       0.00017124
C        5.39450731       3.19891165      18.96010069       0.00066874       0.00177509      -0.00316091
C        8.07563275       0.10455555      18.96556345      -0.00299276       0.00257753       0.00016764
C        9.41507065       0.87859229      18.96727285       0.00093048      -0.00069240      -0.00904977
C        6.73450989       2.42510679      18.96553677       0.00380369       0.00455497      -0.00158251
C        8.07458210       3.19878596      18.96716022       0.00276368       0.00337920      -0.00168844
Si       4.46708018       4.64232588       5.05623624       0.00013421      -0.00006659      -0.05925467
Si       3.57366413       6.18976788      12.64850174       0.00094308       0.00135317       0.00425672
Si       3.57366413       6.18976788       2.52836107      -0.00001363      -0.00012650       0.14668118
Si       4.46708018       4.64232588      10.12062657      -0.00304907      -0.00086492      -0.07291983
Si       2.68957369       4.64019164      15.19408857       0.00242224       0.00047411       0.00279222
Si       2.68024811       4.64232589       7.58805938       0.00015632      -0.00002391      -0.09391006
C        2.68024811       4.64232589       5.68435955      -0.00000694       0.00002211       0.09172822
C        2.68024811       4.64232589      13.27662505       0.00881117      -0.00204094       0.20125079
C        4.46708018       4.64232588       3.15844319      -0.00005348      -0.00076670       0.09263505
C        3.57366413       6.18976788      10.75070869      -0.00226463      -0.00185711       0.01883127
C        3.57366413       6.18976788       0.63055283      -0.00140999      -0.00221603      -0.46440757
C        4.46708018       4.64232588       8.22281833       0.00081530      -0.00048311       0.11028053
Si       4.46708018       7.73720981       5.05623624       0.00003780      -0.00010182      -0.05919579
Si       6.25391224       4.64232591      12.64850174      -0.00079756      -0.00073096       0.05046098
Si       6.25391224       4.64232591       2.52836107      -0.00005785      -0.00002057       0.14664904
Si       4.46708018       7.73720981      10.12062657      -0.00171107       0.00070860      -0.07204154
Si       2.69904860       7.73825457      15.19410574       0.00296731      -0.00011004       0.00231348
Si       2.68024811       7.73720982       7.58805938       0.00025685      -0.00001388      -0.09411317
C        2.68024811       7.73720982       5.68435955      -0.00116291      -0.00062246       0.09143897
C        2.68024811       7.73720982      13.27662505       0.01643501       0.00019952       0.20093351
C        4.46708018       7.73720981       3.15844319      -0.00064123      -0.00108758       0.09276000
C        6.25391224       4.64232591      10.75070869       0.00085823      -0.00126241       0.02969573
C        6.25391224       4.64232591       0.63055283      -0.00003831      -0.00146321      -0.46445667
C        4.46708018       7.73720981       8.22281833      -0.00003677      -0.00135806       0.10972388
Si       1.78683208       6.18976784       5.05623624      -0.00016815       0.00001620      -0.05926341
Si       0.89341603       7.73720984      12.64850174      -0.00086646       0.00086852       0.05069136
Si       0.89341603       7.73720984       2.52836107      -0.00004808      -0.00007122       0.14674983
Si       1.78683208       6.18976784      10.12062657       0.00248857      -0.00096031      -0.07388091
Si       5.34726370       6.19795219      15.19411856      -0.00235950       0.00077416       0.00427240
Si       5.36049621       6.18976786       7.58805938      -0.00022343       0.00009436      -0.09449987
C        5.36049621       6.18976786       5.68435955       0.00000000      -0.00131923       0.09130039
C        5.36049621       6.18976786      13.27662505      -0.01254416       0.00626372       0.20564634
C        1.78683208       6.18976784       3.15844319      -0.00054225      -0.00044814       0.09248721
C        0.89341603       7.73720984      10.75070869       0.00044043       0.00007379       0.02983688
C        0.89341603       7.73720984       0.63055283      -0.00130278      -0.00080167      -0.46470504
C        1.78683208       6.18976784       8.22281833      -0.00131409      -0.00007122       0.11027873
C        2.71469101       4.74695927      18.95511457      -0.00161722      -0.00172547      -0.00063558
C        4.05546745       5.52148757      18.94968378      -0.00155886      -0.00143622       0.01774627
C        1.37483450       7.06794290      18.96421701      -0.00013781       0.00273745      -0.00228211
C        2.71570939       7.84198513      18.96050175      -0.00454442       0.00103873      -0.00414719
C        5.39520655       4.74697973      18.95616897      -0.00191907       0.00058621       0.00783852
C        6.73464512       5.52098053      18.96365142       0.00162108       0.00020826      -0.00842139
C        4.05579900       7.06900408      18.95413108      -0.00346610      -0.00002545       0.00558058
C        5.39514169       7.84212676      18.96146983      -0.00507587      -0.00196175      -0.00086518
C        3.94716346       5.25501898      22.28560891       0.00129121      -0.01101692       0.01214203
O        3.90216415       6.43099413      22.31316553      -0.00347742       0.02268793       0.01734595
O        3.99237810       4.07931284      22.24102125       0.00113591      -0.01681501       0.01853560
