75
Lattice="8.315575849598094 0.0 0.0 4.157787924799047 7.20149657514819 0.0 0.0 0.0 28.31606583383784" Properties=species:S:1:pos:R:3:forces:R:3 energy=-557788.7412969621 free_energy=-557788.7412969621 pbc="T T T"
C        1.52201482       1.28655929      21.33861665      -0.00000283       0.00643213      -0.00927577
C        2.90716773       2.11524717      21.35280552       0.00024965       0.00566954      -0.00775599
C        2.90781717       3.68575260      21.33798134       0.00006222       0.00637582      -0.00874689
C        4.29274972       4.51570361      21.35271155       0.00001131       0.00573845      -0.00746031
C        4.29365861       6.08746969      21.33993467       0.00011339       0.00632517      -0.00914439
C        5.67926472       6.91629727      21.35615087       0.00014321       0.00566851      -0.00775110
C        4.29315136       1.28503421      21.33499854      -0.00015015       0.00646504      -0.00862965
C        5.67928385       2.11307597      21.34763572       0.00019103       0.00581069      -0.00746366
C        5.67981022       3.68792878      21.33163489       0.00003111       0.00629766      -0.00891736
C        7.06593938       4.51572108      21.35264253       0.00022806       0.00571222      -0.00742226
C        7.06594271       6.08748881      21.33994548      -0.00004988       0.00629380      -0.00928734
C        8.45099916       6.91518631      21.35665313       0.00017921       0.00593385      -0.00771254
C        7.06653145       1.28492278      21.33426594       0.00014295       0.00658460      -0.00855895
C        8.45165775       2.11533697      21.35186087       0.00006119       0.00571016      -0.00767063
C        8.45213257       3.68573098      21.33728699      -0.00003008       0.00641876      -0.00871604
C        9.83720233       4.51433404      21.35547399       0.00017406       0.00556284      -0.00759427
C        9.83766551       6.08633628      21.33976503       0.00002237       0.00647918      -0.00905260
C       11.22321673       6.91503497      21.35655834       0.00007945       0.00599504      -0.00775753
Pt       3.00284674       1.20025026       7.49999997      -0.00150512       0.02209683      -0.67760961
Pt       5.77470508       1.20025026       7.49999997      -0.00150358       0.02165974      -0.67793228
Pt       8.54656425       1.20025026       7.49999997      -0.00163291       0.02204181      -0.67826267
Pt       4.38877633       3.60074995       7.49999997      -0.00168382       0.02311267      -0.67839251
Pt       7.16063467       3.60074995       7.49999997      -0.00149433       0.02339652      -0.67838068
Pt       9.93249301       3.60074995       7.49999997      -0.00180440       0.02307102      -0.67830098
Pt       5.77470508       6.00124964       7.49999997      -0.00183937       0.02312784      -0.67717201
Pt       8.54656425       6.00124964       7.49999997      -0.00172804       0.02317078      -0.67758698
Pt      11.31842259       6.00124964       7.49999997      -0.00149587       0.02343535      -0.67774151
Pt       1.61691716       2.00041655       9.76321283       0.00145704      -0.04416332       0.65159982
Pt       4.38877633       2.00041655       9.76321283       0.00137348      -0.04367867       0.65084057
Pt       7.16063467       2.00041655       9.76321283       0.00165296      -0.04400057       0.65104549
Pt       3.00284674       4.40091624       9.76321283       0.00178383      -0.04241523       0.65184767
Pt       5.77470508       4.40091624       9.76321283       0.00149278      -0.04219129       0.65152268
Pt       8.54656425       4.40091624       9.76321283       0.00162494      -0.04285412       0.65140416
Pt       4.38877633       6.80141676       9.76321283       0.00170001      -0.04263763       0.65150340
Pt       7.16063467       6.80141676       9.76321283       0.00133646      -0.04273585       0.65107917
Pt       9.93249301       6.80141676       9.76321283       0.00193578      -0.04317936       0.65074775
Pt       1.62021428       0.31463395      12.10217476      -0.00202911      -0.01340573      -0.00375818
Pt       4.39198281       0.31462148      12.10189037      -0.00074999      -0.01223331      -0.00366177
Pt       7.16392764       0.31461067      12.10198018      -0.00152878      -0.01255650      -0.00394202
Pt       3.00604990       2.71506961      12.10196937      -0.00044686      -0.01230581      -0.00298736
Pt       5.77801302       2.71507959      12.10196937      -0.00130046      -0.01236032      -0.00287578
Pt       8.54994620       2.71508957      12.10200429      -0.00236541      -0.01290925      -0.00319820
Pt       4.39200859       5.11566909      12.10204753      -0.00100710      -0.01473499      -0.00302799
Pt       7.16400081       5.11569237      12.10205419      -0.00233868      -0.01506178      -0.00306964
Pt       9.93575770       5.11564747      12.10208163      -0.00092868      -0.01411356      -0.00315963
Pt       3.00264800       0.99349095      14.45590017      -0.00024348      -0.00584695       0.00598501
Pt       5.77455790       0.99341445      14.45556838      -0.00047051      -0.00568882       0.00532964
Pt       8.54651103       0.99355415      14.45597501      -0.00088883      -0.00618067       0.00576236
Pt       4.38847281       3.39409375      14.45564655       0.00003214      -0.00600841       0.00535021
Pt       7.16076106       3.39414864      14.45573220      -0.00133620      -0.00618890       0.00544380
Pt       9.93237991       3.39416859      14.45606316      -0.00033579      -0.00612822       0.00607372
Pt       5.77463939       5.79467078      14.45594757      -0.00079267      -0.00848130       0.00587189
Pt       8.54654097       5.79480799      14.45589934      -0.00060395      -0.00788275       0.00617579
Pt      11.31829370       5.79476724      14.45596919      -0.00018718      -0.00788506       0.00575850
Pt       1.59870605       1.76389496      16.82479402       0.00175426       0.00395564       0.01847569
Pt       4.37041969       1.76389247      16.82353255       0.00127835       0.00395076       0.01783420
Pt       7.14262230       1.76395982      16.82359325       0.00155089       0.00404512       0.01795941
Pt       2.98448512       4.16443872      16.82474995       0.00143056       0.00331389       0.01809388
Pt       5.75652391       4.16452520      16.82323319       0.00157583       0.00364454       0.01786994
Pt       8.52856186       4.16448279      16.82471336       0.00150538       0.00357435       0.01829057
Pt       4.37068163       6.56480786      16.82483976       0.00174321       0.00188333       0.01838236
Pt       7.14240609       6.56477626      16.82472001       0.00154678       0.00200649       0.01837207
Pt       9.91434010       6.56487355      16.82508423       0.00124056       0.00186791       0.01830394
Pt       1.52285552       0.56064361      19.23966053       0.00096365       0.02414754       0.02153453
Pt       4.29442032       0.56125647      19.23848055       0.00084949       0.02387681       0.02128565
Pt       7.06676595       0.56129888      19.23833835       0.00068546       0.02397477       0.02126791
Pt       2.90838097       2.96136366      19.23961147       0.00061372       0.02477258       0.02088918
Pt       5.68063929       2.96210292      19.23712178       0.00093357       0.02510657       0.02108896
Pt       8.45305976       2.96138112      19.23944349       0.00095079       0.02496978       0.02088224
Pt       4.29421409       5.36228412      19.23964889       0.00089809       0.02387192       0.02123808
Pt       7.06699297       5.36236561      19.23958319       0.00101507       0.02391897       0.02129002
Pt       9.83842305       5.36225335      19.24029085       0.00059444       0.02389198       0.02140289
C        5.73998672       2.81424948      24.43391430      -0.00316117       0.00223120       0.00508693
O        6.91317228       2.80547988      24.41766816      -0.00089732       0.00189413       0.00465113
O        4.56682362       2.82327521      24.44668287      -0.00067543       0.00234407       0.00243535
