57
Lattice="8.315575849598094 0.0 0.0 4.157787924799047 7.20149657514819 0.0 0.0 0.0 23.789640116050258" Properties=species:S:1:pos:R:3:forces:R:3 energy=-373838.0133142859 free_energy=-373838.0133142859 pbc="T T T"
C        1.61680905       2.69297762      16.88667105       0.00038515       0.00317146      -0.00328356
C        3.00182975       3.53058977      16.88307207      -0.00346379       0.00437062       0.00477068
C        3.00269041       5.09235387      16.88677666      -0.00090374      -0.00154163       0.00733664
C        4.38852353       5.93145535      16.89001059       0.00032499      -0.00210136       0.00309407
C        4.38838633       7.49433540      16.88876824       0.00592305      -0.00403406       0.00215998
C        5.77437163       8.33250969      16.89157890       0.00305833      -0.00635680      -0.00711347
C        4.38790486       2.69013037      16.87353244      -0.00868442       0.00735515       0.01185639
C        5.77459947       3.52952621      16.87563878       0.00246157       0.00750762      -0.01491625
C        5.77451382       5.09489761      16.88544035       0.00226488       0.00470049       0.00252328
C        7.16041846       5.93099467      16.89046212       0.00398315       0.00167353       0.00289995
C        7.16058561       7.49361527      16.88860775      -0.00119042       0.00194710       0.00476837
C        8.54646862       8.32950777      16.88867843      -0.00902740       0.00742355      -0.00129121
C        7.16143296       2.69057525      16.87415361       0.01268120       0.00346328       0.01233512
C        8.54727523       3.53062636      16.88466201       0.00386848       0.00150538       0.00303313
C        8.54667485       5.09229733      16.88732466       0.00101327      -0.00008433       0.00833320
C        9.93255537       5.92977810      16.89236971      -0.00082790      -0.00219238      -0.01892923
C        9.93247804       7.49214258      16.88722736       0.00127732      -0.00090169       0.00683579
C       11.31828622       8.33032602      16.88835246       0.01222148       0.00243998       0.00251094
Pt       1.61691716       0.40008314       7.49999997      -0.00278245       0.00827664      -0.68043962
Pt       4.38877633       0.40008314       7.49999997       0.00006068       0.01176974      -0.68257724
Pt       7.16063467       0.40008314       7.49999997      -0.00038464       0.00961387      -0.68159533
Pt       3.00284674       2.80058366       7.49999997       0.00101147       0.01407653      -0.68356711
Pt       5.77470508       2.80058366       7.49999997      -0.00204840       0.01300695      -0.68305958
Pt       8.54656425       2.80058366       7.49999997      -0.00275982       0.01151726      -0.68396846
Pt       4.38877633       5.20108335       7.49999997      -0.00105081       0.01280975      -0.68155420
Pt       7.16063467       5.20108335       7.49999997      -0.00383506       0.01266397      -0.68297730
Pt       9.93249301       5.20108335       7.49999997       0.00085952       0.01346692      -0.68443589
Pt       3.00284674       1.20025026       9.76321283       0.00525045      -0.02322143       0.67566508
Pt       5.77470508       1.20025026       9.76321283       0.00702811      -0.02439643       0.67172693
Pt       8.54656425       1.20025026       9.76321283       0.00656865      -0.02508934       0.67503594
Pt       4.38877633       3.60074995       9.76321283       0.00581275      -0.01563205       0.66771369
Pt       7.16063467       3.60074995       9.76321283       0.00460150      -0.01736523       0.66887866
Pt       9.93249301       3.60074995       9.76321283       0.00725385      -0.01903131       0.67237356
Pt       5.77470508       6.00124964       9.76321283       0.00395590      -0.01914238       0.67625772
Pt       8.54656425       6.00124964       9.76321283       0.00776345      -0.01839984       0.67647395
Pt      11.31842259       6.00124964       9.76321283       0.00714484      -0.01841270       0.67531387
Pt       1.62250439       1.95666997      12.13918822      -0.00658691      -0.00068957      -0.00185042
Pt       4.39463132       1.95625086      12.13766398      -0.00930302       0.00619379       0.01105703
Pt       7.16583606       1.95653608      12.13761658      -0.00425569       0.00265775       0.01038083
Pt       3.00799741       4.35719128      12.13828099      -0.00574564       0.00239807       0.00532321
Pt       5.77985908       4.35773013      12.13787436      -0.00553044       0.00335118       0.01186281
Pt       8.55208829       4.35713889      12.13850635      -0.00549882       0.00256313       0.00470512
Pt       4.39359354       6.75790717      12.13951004       0.00337663       0.00035147       0.00322545
Pt       7.16706261       6.75783316      12.13951170      -0.01932981       0.00077313       0.00432562
Pt       9.93810186       6.75781819      12.13983767      -0.00631463      -0.00003060       0.00099039
Pt       1.61847051       1.91881497      14.73508232      -0.00003831       0.00186174       0.00278528
Pt       4.39008187       1.92051384      14.73498836      -0.00959767      -0.00834760      -0.01372686
Pt       7.16299629       1.92033256      14.73494429       0.00452823      -0.00580452      -0.01257424
Pt       3.00343133       4.32020942      14.73552554      -0.00028051       0.00519131      -0.00276882
Pt       5.77642225       4.31984852      14.73482371      -0.00286369       0.00537515      -0.01511886
Pt       8.54887765       4.32045805      14.73543407       0.00160900       0.00410168      -0.00144007
Pt       4.39093671       6.72040559      14.73597375      -0.00994554       0.00465498      -0.00755981
Pt       7.16195851       6.72042887      14.73590889       0.00603952       0.00667664      -0.00708905
Pt       9.93408877       6.72171363      14.73574009       0.00045586      -0.00907137      -0.00500105
C        5.68439377       3.41022930      19.96117976       0.00059572       0.01341910       0.02542667
O        6.85705794       3.37690712      19.97183202      -0.00082198       0.00199569       0.01934755
O        4.51171047       3.44256774      19.94628158      -0.00030648       0.00752253       0.02550946
