179
Lattice="10.720992125991367 0.0 0.0 -5.360496062995684 9.284647205911675 0.0 0.0 0.0 34.99999747733031" Properties=species:S:1:pos:R:3:forces:R:3 energy=-75885.95062523049 free_energy=-75885.95062523049 pbc="T T T"
Si       1.78683238      -0.00000000       5.05623645      -0.00067311       0.00003034      -0.06982088
Si       0.89341565       1.54744227      12.64850107      -0.00168202       0.00137091       0.08141835
Si       0.89341565       1.54744227       2.52836052      -0.00026842      -0.00105415       0.00508950
Si       1.78683238      -0.00000000      10.12062622      -0.00128067       0.00009076      -0.06318203
Si      -0.00123720       0.00606915      15.20562923      -0.00155089      -0.00980490       0.01272156
Si       0.00000000       0.00000000       7.58805878      -0.00007816      -0.00004885      -0.07054850
C        0.00000000       0.00000000       5.68435901      -0.00005116       0.00031753       0.07946586
C        0.00000000       0.00000000      13.27662471      -0.00160385       0.00927525       0.25092913
C        1.78683238      -0.00000000       3.15844288       0.00126267      -0.00004705       0.09218279
C        0.89341565       1.54744227      10.75070857      -0.00028179       0.00098910      -0.00292900
C        0.89341565       1.54744227       0.63055301      -0.00383043      -0.00724588      -0.43235671
C        1.78683238      -0.00000000       8.22281763       0.00167764       0.00009565       0.10546562
Si       1.78683238       3.09488347       5.05623645      -0.00033296      -0.00051576      -0.06945578
Si       3.57366368       0.00000000      12.64850107      -0.00017484       0.00036818       0.09505266
Si       3.57366368       0.00000000       2.52836052      -0.00144907       0.00006505       0.00600584
Si       1.78683238       3.09488347      10.12062622      -0.00011493       0.00000797      -0.06246289
Si       0.00092951       3.09711237      15.20545877       0.00592845      -0.00380575       0.01183864
Si       0.00000000       3.09488347       7.58805878       0.00010850      -0.00074948      -0.07040452
C        0.00000000       3.09488347       5.68435901       0.00023268       0.00159331       0.07951496
C        0.00000000       3.09488347      13.27662471       0.00066334       0.00440816       0.24559255
C        1.78683238       3.09488347       3.15844288       0.00091506       0.00114028       0.09260342
C        3.57366368       0.00000000      10.75070857       0.00110480      -0.00102896      -0.00060884
C        3.57366368       0.00000000       0.63055301      -0.00830852       0.00036355      -0.43222378
C        1.78683238       3.09488347       8.22281763       0.00068366       0.00104772       0.10557052
Si      -0.89341565       1.54744227       5.05623645       0.00033604      -0.00051602      -0.06967278
Si      -1.78683238       3.09488347      12.64850107       0.00202989       0.00213993       0.09414043
Si      -1.78683238       3.09488347       2.52836052       0.00065563      -0.00110043       0.00701654
Si      -0.89341565       1.54744227      10.12062622       0.00139662      -0.00109735      -0.06303856
Si       2.67975594       1.55355109      15.20535478       0.00123027       0.00075539       0.01894800
Si       2.68024803       1.54744227       7.58805878      -0.00066103      -0.00022934      -0.07046365
C        2.68024803       1.54744227       5.68435901       0.00119685       0.00112589       0.07955276
C        2.68024803       1.54744227      13.27662471      -0.00067851       0.00840237       0.25307188
C       -0.89341565       1.54744227       3.15844288      -0.00045663       0.00104490       0.09222110
C       -1.78683238       3.09488347      10.75070857      -0.00113180       0.00139817      -0.00084949
C       -1.78683238       3.09488347       0.63055301       0.00435725      -0.00722531      -0.43224718
C       -0.89341565       1.54744227       8.22281763      -0.00098962       0.00159074       0.10544608
C       -0.01691558      -0.09410244      18.88390300       0.00348796      -0.00402738       0.00054353
C        1.32443277       0.67958868      18.88529244      -0.00119685       0.00106752       0.00070165
C       -1.35649068       2.22756164      18.88657252       0.00114620      -0.00653574      -0.00176378
C       -0.01533316       3.00081106      18.88310107      -0.00233893      -0.00203169       0.00263384
C        2.66383526      -0.09437261      18.88546505      -0.00017998       0.00046820       0.00163522
C        4.00334604       0.67881784      18.88561300      -0.00017741       0.00525971      -0.00072942
C        1.32541481       2.22681868      18.88298743      -0.00277936       0.00348873      -0.00664707
C        2.66411615       2.99937444      18.87788852      -0.00235025       0.01019854      -0.01374306
Si      -0.89341565       4.64232575       5.05623645      -0.00003908      -0.00045174      -0.06921230
Si      -1.78683238       6.18976802      12.64850107      -0.00235256       0.00037127       0.07591516
Si      -1.78683238       6.18976802       2.52836052      -0.00065949       0.00053453       0.00887493
Si      -0.89341565       4.64232575      10.12062622       0.00032782      -0.00031265      -0.06281694
Si      -2.67888539       4.65179024      15.20548450      -0.00113771      -0.00711938       0.01351809
Si      -2.68024803       4.64232575       7.58805878      -0.00000026       0.00007148      -0.07032970
C       -2.68024803       4.64232575       5.68435901      -0.00016018       0.00051114       0.07986438
C       -2.68024803       4.64232575      13.27662471       0.00156503       0.01166227       0.24722237
C       -0.89341565       4.64232575       3.15844288       0.00013524       0.00077339       0.09234503
C       -1.78683238       6.18976802      10.75070857      -0.00016944       0.00059778      -0.00456242
C       -1.78683238       6.18976802       0.63055301      -0.00391733       0.00236439      -0.43312315
C       -0.89341565       4.64232575       8.22281763      -0.00006119       0.00053530       0.10578264
Si      -0.89341565       7.73720922       5.05623645      -0.00043940       0.00027845      -0.06934291
Si       0.89341565       4.64232575      12.64850107       0.00257342      -0.00259090       0.08160964
Si       0.89341565       4.64232575       2.52836052       0.00021366      -0.00067723       0.00849878
Si      -0.89341565       7.73720922      10.12062622      -0.00062144      -0.00007276      -0.06326559
Si      -2.68390389       7.73422342      15.20562387       0.00529827      -0.00541037       0.01305863
Si      -2.68024803       7.73720922       7.58805878      -0.00066283       0.00025608      -0.07044334
C       -2.68024803       7.73720922       5.68435901       0.00137194      -0.00073945       0.07969366
C       -2.68024803       7.73720922      13.27662471      -0.00396027      -0.00175863       0.25018402
C       -0.89341565       7.73720922       3.15844288       0.00084152      -0.00033579       0.09281297
C        0.89341565       4.64232575      10.75070857      -0.00003780       0.00000848      -0.00346456
C        0.89341565       4.64232575       0.63055301       0.00040212      -0.00429580      -0.43293881
C       -0.89341565       7.73720922       8.22281763       0.00077570       0.00020672       0.10588728
Si      -3.57366368       6.18976802       5.05623645      -0.00036613       0.00056976      -0.06950206
Si      -4.46708041       7.73720922      12.64850107       0.00027408       0.00264129       0.08807185
Si      -4.46708041       7.73720922       2.52836052      -0.00044711       0.00102124       0.00399858
Si      -3.57366368       6.18976802      10.12062622       0.00068391       0.00006942      -0.06278274
Si      -0.00206272       6.18711243      15.20523041       0.00094282       0.00098448       0.02104242
Si       0.00000000       6.18976802       7.58805878      -0.00002237      -0.00011801      -0.07032044
C        0.00000000       6.18976802       5.68435901       0.00004602       0.00026868       0.07978750
C        0.00000000       6.18976802      13.27662471      -0.00267960      -0.00230062       0.25274741
C       -3.57366368       6.18976802       3.15844288       0.00071888      -0.00077005       0.09235043
C       -4.46708041       7.73720922      10.75070857      -0.00036201      -0.00026637      -0.00163136
C       -4.46708041       7.73720922       0.63055301      -0.00416827       0.00745980      -0.43174093
C       -3.57366368       6.18976802       8.22281763       0.00027768      -0.00044069       0.10570422
C       -2.69698564       4.54808608      18.88489040       0.00190005      -0.00314729       0.00202320
C       -1.35567589       5.32211598      18.88365320      -0.00173524      -0.00498100       0.00434542
C       -4.03820535       6.86855906      18.88487325       0.00759658       0.00138223      -0.00050985
C       -2.69715825       7.64234238      18.88386547       0.00304059       0.00007610       0.00072454
C       -0.01528170       4.54831230      18.88176630      -0.00105235      -0.00346585       0.00735875
C        1.32466542       5.32060432      18.87745325      -0.00007790       0.00021469       0.00482725
C       -1.35601789       6.86825351      18.88341305      -0.00196175       0.00236567       0.00208414
C       -0.01596356       7.64172163      18.88173307      -0.00094385       0.00254642       0.00848670
Si       7.14732844      -0.00000000       5.05623645       0.00064072       0.00000771      -0.06940282
Si       6.25391172       1.54744227      12.64850107      -0.00276471       0.00088986       0.08196060
Si       6.25391172       1.54744227       2.52836052       0.00036407      -0.00040726       0.00820156
Si       7.14732844      -0.00000000      10.12062622       0.00058467      -0.00032576      -0.06274237
Si       5.36490775       0.00584937      15.20552738      -0.00016121      -0.00967866       0.01307817
Si       5.36049606       0.00000000       7.58805878       0.00008690       0.00004294      -0.07040580
C        5.36049606       0.00000000       5.68435901       0.00000694       0.00043734       0.07973402
C        5.36049606       0.00000000      13.27662471       0.00415233       0.00902252       0.24784997
C        7.14732844      -0.00000000       3.15844288      -0.00081221      -0.00008665       0.09216762
C        6.25391172       1.54744227      10.75070857      -0.00090297       0.00125187      -0.00331518
C        6.25391172       1.54744227       0.63055301       0.00421481      -0.00239035      -0.43257345
C        7.14732844      -0.00000000       8.22281763      -0.00091043       0.00023268       0.10574073
Si       7.14732844       3.09488347       5.05623645       0.00033604      -0.00014552      -0.06931128
Si       8.93415975       0.00000000      12.64850107       0.00135909      -0.00118811       0.07823815
Si       8.93415975       0.00000000       2.52836052       0.00119942      -0.00006248       0.00684016
Si       7.14732844       3.09488347      10.12062622      -0.00058955       0.00022549      -0.06334118
Si       5.35322509       3.09678431      15.20555526       0.00458865      -0.00359312       0.01158745
Si       5.36049606       3.09488347       7.58805878      -0.00014887      -0.00000746      -0.07010216
C        5.36049606       3.09488347       5.68435901       0.00011519       0.00016789       0.07963684
C        5.36049606       3.09488347      13.27662471      -0.00844607       0.00334655       0.24570850
C        7.14732844       3.09488347       3.15844288      -0.00028051       0.00067389       0.09286979
C        8.93415975       0.00000000      10.75070857      -0.00087212      -0.00098653      -0.00341314
C        8.93415975       0.00000000       0.63055301       0.00882968       0.00036664      -0.43343194
C        7.14732844       3.09488347       8.22281763       0.00009822       0.00056256       0.10598164
Si       4.46708041       1.54744227       5.05623645      -0.00042809      -0.00022163      -0.06934985
Si       3.57366368       3.09488347      12.64850107      -0.00080835       0.00317094       0.07391562
Si       3.57366368       3.09488347       2.52836052      -0.00069420      -0.00039055       0.00724100
Si       4.46708041       1.54744227      10.12062622       0.00016944       0.00095337      -0.06274417
Si       8.03981351       1.54183734      15.20533012       0.00164139      -0.00166196       0.02187597
Si       8.04074409       1.54744227       7.58805878       0.00059727      -0.00045843      -0.07051610
C        8.04074409       1.54744227       5.68435901      -0.00121022       0.00092097       0.07954633
C        8.04074409       1.54744227      13.27662471      -0.00241787      -0.00378929       0.25502335
C        4.46708041       1.54744227       3.15844288       0.00053993       0.00033244       0.09268647
C        3.57366368       3.09488347      10.75070857       0.00048645       0.00075513      -0.00578935
C        3.57366368       3.09488347       0.63055301      -0.00401298      -0.00229600      -0.43235028
C        4.46708041       1.54744227       8.22281763       0.00035456       0.00002391       0.10572890
C        5.34451321      -0.09501372      18.88339482      -0.00416879       0.00155937       0.00261918
C        6.68492133       0.67951900      18.88567089      -0.00367771      -0.00189285      -0.00286112
C        4.00294293       2.22622045      18.88428895      -0.00301256       0.00797762      -0.01017771
C        5.34331031       3.00003915      18.88547684      -0.00068237       0.00274105      -0.00388365
C        8.02438493      -0.09337448      18.88343449      -0.00046691      -0.00729808       0.00407828
C        9.36416695       0.68014403      18.88557654      -0.00031265      -0.00647275      -0.00306347
C        6.68444103       2.22686049      18.88770573      -0.00341674      -0.00277113      -0.00330747
C        8.02442567       3.00099224      18.88744414      -0.00060884      -0.00588294      -0.00347279
Si       4.46708041       4.64232575       5.05623645      -0.00007996       0.00051911      -0.06928789
Si       3.57366368       6.18976802      12.64850107      -0.00300151      -0.00122333       0.09061905
Si       3.57366368       6.18976802       2.52836052       0.00076542       0.00107961       0.00787580
Si       4.46708041       4.64232575      10.12062622      -0.00075359      -0.00111637      -0.06258374
Si       2.68103710       4.64104888      15.20544590      -0.00086209      -0.00954136       0.00873429
Si       2.68024803       4.64232575       7.58805878      -0.00005734      -0.00025068      -0.07020474
C        2.68024803       4.64232575       5.68435901      -0.00002005       0.00030108       0.07971037
C        2.68024803       4.64232575      13.27662471       0.00036458       0.00083664       0.24250876
C        4.46708041       4.64232575       3.15844288      -0.00005065      -0.00021520       0.09238616
C        3.57366368       6.18976802      10.75070857      -0.00148224       0.00020980      -0.00149150
C        3.57366368       6.18976802       0.63055301       0.00420632       0.00742895      -0.43294523
C        4.46708041       4.64232575       8.22281763       0.00029825       0.00005039       0.10564149
Si       4.46708041       7.73720922       5.05623645       0.00025840       0.00051885      -0.06973937
Si       6.25391172       4.64232575      12.64850107      -0.00029413      -0.00118965       0.08426996
Si       6.25391172       4.64232575       2.52836052      -0.00001697       0.00086620       0.00813651
Si       4.46708041       7.73720922      10.12062622      -0.00042115       0.00103821      -0.06336304
Si       2.67648711       7.74320226      15.20541374       0.00510055      -0.00266058       0.01310928
Si       2.68024803       7.73720922       7.58805878       0.00057027       0.00030493      -0.07041300
C        2.68024803       7.73720922       5.68435901      -0.00108063      -0.00047180       0.07960547
C        2.68024803       7.73720922      13.27662471      -0.00527025       0.00653240       0.24715706
C        4.46708041       7.73720922       3.15844288      -0.00036715      -0.00110995       0.09202492
C        6.25391172       4.64232575      10.75070857       0.00077442      -0.00176455      -0.00289275
C        6.25391172       4.64232575       0.63055301       0.00032833       0.00542117      -0.43285730
C        4.46708041       7.73720922       8.22281763      -0.00024091      -0.00094694       0.10569959
Si       1.78683238       6.18976802       5.05623645       0.00045483       0.00017535      -0.06928943
Si       0.89341565       7.73720922      12.64850107       0.00156966       0.00228802       0.08617181
Si       0.89341565       7.73720922       2.52836052       0.00041935       0.00040161       0.00781924
Si       1.78683238       6.18976802      10.12062622       0.00077185      -0.00063018      -0.06287221
Si       5.36211493       6.18673398      15.20533012       0.00225614       0.00152775       0.02081899
Si       5.36049606       6.18976802       7.58805878      -0.00007816       0.00055870      -0.07059658
C        5.36049606       6.18976802       5.68435901       0.00020903      -0.00119762       0.07943218
C        5.36049606       6.18976802      13.27662471       0.00019180      -0.00367591       0.25484466
C        1.78683238       6.18976802       3.15844288      -0.00011621      -0.00034453       0.09232163
C        0.89341565       7.73720922      10.75070857      -0.00149818       0.00037358      -0.00268706
C        0.89341565       7.73720922       0.63055301       0.00421995       0.00236207      -0.43203275
C        1.78683238       6.18976802       8.22281763      -0.00042886       0.00017201       0.10575024
C        2.66398536       4.54664518      18.87343288      -0.00226694       0.00459250      -0.00788249
C        4.00287539       5.32058288      18.87946880      -0.00090631       0.00094359      -0.00013267
C        1.32399214       6.86792545      18.87846853      -0.00003780       0.00131615       0.01512529
C        2.66379024       7.64218478      18.87821015      -0.00086055      -0.00003651       0.01725904
C        5.34291256       4.54788667      18.88464811       0.00146501      -0.00078213       0.00055870
C        6.68259595       5.32198626      18.88559048       0.00638559      -0.00508101       0.00059367
C        4.00331817       6.86812057      18.88008418       0.00093177      -0.00029851       0.01175148
C        5.34317416       7.64234238      18.88342270       0.00375073      -0.00127167       0.00531061
C        2.64301939       3.80243572      23.11634806       0.00151438       0.00080013      -0.00504142
O        2.63697060       3.78987929      24.28732913       0.00003934      -0.00037538       0.02406630
O        2.64900599       3.81488065      21.93767576       0.00004474       0.00035250       0.00120842
