48
Lattice="8.315575849598094 0.0 0.0 4.157787924799047 7.20149657514819 0.0 0.0 0.0 19.999999365264614" Properties=species:S:1:pos:R:3:forces:R:3 energy=-283178.57894842245 free_energy=-283178.57894842245 pbc="T T T"
Pt       3.00284680       1.20024997       4.65499339       0.00094385       0.00345839      -1.24665028
Pt       5.77470538       1.20024997       4.65499339       0.00091968       0.00261815      -1.24678012
Pt       8.54656396       1.20024997       4.65499339       0.00115134       0.00256570      -1.24680634
Pt       4.38877609       3.60074992       4.65499339       0.00049725       0.00286241      -1.24741904
Pt       7.16063467       3.60074992       4.65499339       0.00067080       0.00358437      -1.24908100
Pt       9.93249325       3.60074992       4.65499339       0.00180749       0.00269683      -1.24774788
Pt       5.77470538       6.00124987       4.65499339       0.00072068       0.00084692      -1.24534004
Pt       8.54656396       6.00124987       4.65499339       0.00117628       0.00097599      -1.24556244
Pt      11.31842254       6.00124987       4.65499339       0.00113309       0.00122153      -1.24547040
Pt       1.61691751       2.00041662       6.91820644       0.00100427      -0.00020903       1.23609821
Pt       4.38877609       2.00041662       6.91820644       0.00942772      -0.00071194       1.23370657
Pt       7.16063467       2.00041662       6.91820644       0.00570219      -0.00183037       1.26193677
Pt       3.00284680       4.40091657       6.91820644       0.00483110       0.00214919       1.22930638
Pt       5.77470538       4.40091657       6.91820644       0.00697926       0.00182625       1.24493818
Pt       8.54656396       4.40091657       6.91820644       0.00443387       0.00175529       1.25034289
Pt       4.38877609       6.80141652       6.91820644       0.00383763       0.00395976       1.25707430
Pt       7.16063467       6.80141652       6.91820644       0.00548519      -0.00345402       1.24001143
Pt       9.93249325       6.80141652       6.91820644       0.00699212       0.00299482       1.25673851
Pt       1.62913869       2.01363072       9.54682569      -0.01052841      -0.00099347       0.00701294
Pt       4.39956647       2.01337640       9.54644751      -0.00402995      -0.00070448       0.00754207
Pt       7.17193673       2.01647076       9.55129901      -0.00767629      -0.01484272       0.00337689
Pt       3.01458852       4.41372274       9.54559883      -0.00931819       0.00523708       0.01460515
Pt       5.78530319       4.41460752       9.54828998      -0.00460099      -0.00186276       0.00734641
Pt       8.55859118       4.41444755       9.54914987      -0.00850084      -0.00061347       0.00615831
Pt       4.40018169       6.81553567       9.54964847      -0.00821313      -0.00582072      -0.01486920
Pt       7.17190965       6.81506555       9.54702096      -0.00536384      -0.00410554       0.00441536
Pt       9.94419639       6.81525886       9.54957584      -0.00931356      -0.00553353      -0.01415315
C        1.62878521       2.78952213      11.92025714       0.00261738       0.00095851       0.00116420
C        3.01487011       3.61894217      11.92160168      -0.00021417      -0.00465987       0.02159958
C        3.01471157       5.18999703      11.92336559       0.00058364       0.00173112      -0.00491955
C        4.40032797       6.01876694      11.92385261       0.00394150       0.00186765       0.01138202
C        4.40048201       7.59073747      11.92156881       0.00643830      -0.00270994       0.00972828
C        5.78647566       8.41960489      11.92461346       0.00287681      -0.00371961      -0.00094000
C        4.40070253       2.78962722      11.92133303      -0.00247186       0.00102716       0.00031753
C        5.78604083       3.61912755      11.91930941      -0.00148944      -0.00093357      -0.00833449
C        5.78661061       5.18921156      11.92387132       0.00023011       0.00366459      -0.00581121
C        7.17238095       6.01826881      11.92701722       0.00047077       0.00230397      -0.01036103
C        7.17238107       7.58972254      11.92355394       0.00086852       0.00377952       0.01051118
C        8.55851722       8.41958811      11.92496086      -0.00196175      -0.00343859      -0.00089989
C        7.17223729       2.78861786      11.91226905       0.00069137      -0.00195507      -0.01455064
C        8.55893338       3.61929655      11.91762154       0.00145293      -0.00092971      -0.00605829
C        8.55818305       5.18921705      11.92278439       0.00062915       0.00324062      -0.00380060
C        9.94471283       6.01889559      11.92329600      -0.00317660       0.00190673       0.01164067
C        9.94416345       7.59083532      11.92195984      -0.00345273      -0.00287629       0.00800744
C       11.33012181       8.42064825      11.92224820       0.00130406      -0.00388417      -0.01129126
C        7.19436057       2.96244018      16.33018871       0.00151207       0.02071332      -0.01968179
O        7.21930095       3.28110803      15.19437406      -0.00020003       0.00005734      -0.00417521
O        7.16947952       2.64458523      17.46103093      -0.00081890      -0.01421434       0.00574256
