179
Lattice="10.720992125991367 0.0 0.0 -5.360496062995684 9.284647205911675 0.0 0.0 0.0 34.99999747733031" Properties=species:S:1:pos:R:3:forces:R:3 energy=-74050.61398834265 free_energy=-74050.61398834265 pbc="T T T"
Si       1.78683208      -0.00000002       5.05623624       0.00011004       0.00014192      -0.05267393
Si       0.89341603       1.54744198      12.64850174      -0.00054867       0.00031316      -0.05977712
Si       0.89341603       1.54744198       2.52836107      -0.00016404      -0.00009076       0.15910269
Si       1.78683208      -0.00000002      10.12062657      -0.00055073      -0.00044146      -0.07446995
Si       0.00188986       0.00242725      15.17900788      -0.00158688      -0.00225434      -0.00966452
Si       0.00000000       0.00000000       7.58805938       0.00009770      -0.00011236      -0.08761831
C        0.00000000       0.00000000       5.68435955      -0.00109169       0.00090683       0.08069304
C        0.00000000       0.00000000      13.27662505       0.00184605       0.00169539       0.02928615
C        1.78683208      -0.00000002       3.15844319       0.00076439       0.00034350       0.08420260
C        0.89341603       1.54744198      10.75070869      -0.00250220      -0.00054585       0.01636790
C        0.89341603       1.54744198       0.63055283       0.00075436      -0.00081633      -0.23740024
C        1.78683208      -0.00000002       8.22281833       0.00069497       0.00110583       0.11505944
Si       1.78683208       3.09488391       5.05623624      -0.00045946      -0.00013061      -0.05312696
Si       3.57366413       0.00000002      12.64850174       0.00035456      -0.00010130      -0.05632747
Si       3.57366413       0.00000002       2.52836107      -0.00027459      -0.00020672       0.15925644
Si       1.78683208       3.09488391      10.12062657      -0.00054327       0.00116445      -0.07460313
Si      -0.00055256       3.09474193      15.17890826       0.00161440       0.00147813      -0.00963881
Si       0.00000000       3.09488393       7.58805938      -0.00009179       0.00007842      -0.08786334
C        0.00000000       3.09488393       5.68435955       0.00124776      -0.00091917       0.07987672
C        0.00000000       3.09488393      13.27662505      -0.00045560      -0.00220009       0.02686597
C        1.78683208       3.09488391       3.15844319       0.00060935       0.00016455       0.08318110
C        3.57366413       0.00000002      10.75070869       0.00273385      -0.00239833       0.01814659
C        3.57366413       0.00000002       0.63055283       0.00063018      -0.00061604      -0.23923626
C        1.78683208       3.09488391       8.22281833       0.00032165       0.00148507       0.11437527
Si      -0.89341603       1.54744195       5.05623624       0.00000848      -0.00005091      -0.05316964
Si      -1.78683208       3.09488395      12.64850174       0.00150975       0.00111817      -0.05614621
Si      -1.78683208       3.09488395       2.52836107      -0.00023680      -0.00006942       0.15920476
Si      -0.89341603       1.54744195      10.12062657       0.00171981       0.00014835      -0.07468798
Si       2.68057320       1.54631405      15.18007247      -0.00062272       0.00330978      -0.00942669
Si       2.68024811       1.54744196       7.58805938       0.00000154       0.00017972      -0.08762551
C        2.68024811       1.54744196       5.68435955       0.00007739      -0.00153083       0.08242597
C        2.68024811       1.54744196      13.27662505       0.00067157      -0.00054199       0.05616421
C       -0.89341603       1.54744195       3.15844319       0.00263358      -0.00096442       0.08275404
C       -1.78683208       3.09488395      10.75070869      -0.00101044      -0.00170618       0.01879605
C       -1.78683208       3.09488395       0.63055283       0.00142516       0.00025762      -0.24084655
C       -0.89341603       1.54744195       8.22281833      -0.00068726       0.00211113       0.11431922
C       -0.01620895      -0.09526677      18.61082146      -0.00190853      -0.00137451       0.00998436
C        1.32475454       0.67924595      18.61171427       0.00101739       0.00389882       0.01065054
C       -1.35690997       2.22552523      18.61220257       0.00080218       0.00365817       0.01138819
C       -0.01573796       2.99966896      18.61072633      -0.00152338      -0.00180234       0.01022142
C        2.66394525      -0.09402392      18.61184979      -0.00116522       0.00105030       0.01071327
C        4.00283659       0.67933085      18.61153925      -0.00025505       0.00039955       0.01177488
C        1.32519019       2.22610374      18.61030325      -0.00031342       0.00028051       0.01108685
C        2.66388230       2.99940261      18.60706251      -0.00067929      -0.00039389       0.00942618
Si      -0.89341603       4.64232588       5.05623624       0.00007533       0.00006479      -0.05277961
Si      -1.78683208       6.18976788      12.64850174      -0.00082584      -0.00051422      -0.05912020
Si      -1.78683208       6.18976788       2.52836107      -0.00014655       0.00004782       0.15909961
Si      -0.89341603       4.64232588      10.12062657      -0.00021494      -0.00080758      -0.07447972
Si      -2.67827723       4.64457067      15.17898446      -0.00179772      -0.00184194      -0.00964884
Si      -2.68024811       4.64232589       7.58805938       0.00010927      -0.00018538      -0.08768310
C       -2.68024811       4.64232589       5.68435955      -0.00099579       0.00101559       0.08016648
C       -2.68024811       4.64232589      13.27662505       0.00123104       0.00072402       0.02947590
C       -0.89341603       4.64232588       3.15844319       0.00035378       0.00054456       0.08340967
C       -1.78683208       6.18976788      10.75070869      -0.00203169      -0.00035635       0.01705927
C       -1.78683208       6.18976788       0.63055283       0.00032859      -0.00194478      -0.23772780
C       -0.89341603       4.64232588       8.22281833       0.00054173       0.00140254       0.11537106
Si      -0.89341603       7.73720981       5.05623624      -0.00047231      -0.00012933      -0.05309739
Si       0.89341603       4.64232591      12.64850174       0.00187999      -0.00145910      -0.05896105
Si       0.89341603       4.64232591       2.52836107      -0.00028514      -0.00027279       0.15921274
Si      -0.89341603       7.73720981      10.12062657      -0.00067671       0.00096391      -0.07486281
Si      -2.68173087       7.73662935      15.17897282       0.00085309       0.00141745      -0.00962672
Si      -2.68024811       7.73720982       7.58805938      -0.00013241       0.00015555      -0.08782014
C       -2.68024811       7.73720982       5.68435955       0.00120919      -0.00248703       0.07953116
C       -2.68024811       7.73720982      13.27662505      -0.00100016      -0.00390113       0.02876627
C       -0.89341603       7.73720981       3.15844319       0.00051165       0.00001748       0.08426148
C        0.89341603       4.64232591      10.75070869       0.00176866      -0.00213736       0.01819390
C        0.89341603       4.64232591       0.63055283       0.00030519      -0.00149818      -0.23883286
C       -0.89341603       7.73720981       8.22281833       0.00097239       0.00163342       0.11353400
Si      -3.57366413       6.18976784       5.05623624      -0.00002700       0.00010130      -0.05316501
Si      -4.46708018       7.73720984      12.64850174       0.00071554       0.00079319      -0.05573792
Si      -4.46708018       7.73720984       2.52836107      -0.00013524       0.00001311       0.15923999
Si      -3.57366413       6.18976784      10.12062657       0.00139431      -0.00005734      -0.07461727
Si       0.00062498       6.18633416      15.18017584      -0.00016764       0.00272331      -0.00934750
Si       0.00000000       6.18976786       7.58805938      -0.00001106       0.00010593      -0.08769570
C        0.00000000       6.18976786       5.68435955      -0.00033347      -0.00101790       0.08201176
C        0.00000000       6.18976786      13.27662505       0.00047308      -0.00291769       0.05783851
C       -3.57366413       6.18976784       3.15844319       0.00339411      -0.00157197       0.08368889
C       -4.46708018       7.73720984      10.75070869      -0.00115494      -0.00241015       0.01887087
C       -4.46708018       7.73720984       0.63055283       0.00210676      -0.00016789      -0.24036395
C       -3.57366413       6.18976784       8.22281833       0.00011493       0.00120868       0.11423566
C       -2.69657063       4.54688123      18.61096114      -0.00173061      -0.00087263       0.01073718
C       -1.35551430       5.32097508      18.61218247       0.00146527       0.00392170       0.01138587
C       -4.03744623       6.86764422      18.61197143       0.00019643       0.00386668       0.01132802
C       -2.69659237       7.64185455      18.61065668      -0.00140074      -0.00169590       0.00948891
C       -0.01566750       4.54784005      18.61200245      -0.00100607       0.00195867       0.01101486
C        1.32381570       5.32051075      18.61015512      -0.00153469       0.00077879       0.01137122
C       -1.35591088       6.86771513      18.61174723       0.00011107       0.00066900       0.01264443
C       -0.01627251       7.64121309      18.61204546      -0.00086363       0.00049751       0.01066956
Si       7.14732829      -0.00000002       5.05623624       0.00002648       0.00011750      -0.05270067
Si       6.25391224       1.54744198      12.64850174      -0.00159074       0.00010079      -0.05889369
Si       6.25391224       1.54744198       2.52836107      -0.00008536       0.00001954       0.15913252
Si       7.14732829      -0.00000002      10.12062657      -0.00066412      -0.00080630      -0.07451751
Si       5.36214974       0.00231331      15.17898780      -0.00162417      -0.00208054      -0.00964652
Si       5.36049621       0.00000000       7.58805938       0.00006762      -0.00003471      -0.08768979
C        5.36049621       0.00000000       5.68435955      -0.00123079       0.00112074       0.08010323
C        5.36049621       0.00000000      13.27662505       0.00115828       0.00116060       0.02936148
C        7.14732829      -0.00000002       3.15844319      -0.00004551       0.00104438       0.08360328
C        6.25391224       1.54744198      10.75070869      -0.00265595       0.00002391       0.01749636
C        6.25391224       1.54744198       0.63055283       0.00104027      -0.00133569      -0.23821245
C        7.14732829      -0.00000002       8.22281833       0.00058210       0.00136037       0.11399012
Si       7.14732829       3.09488391       5.05623624      -0.00051062      -0.00006556      -0.05301563
Si       8.93416034       0.00000002      12.64850174       0.00071939      -0.00123233      -0.05650025
Si       8.93416034       0.00000002       2.52836107      -0.00020106      -0.00025685       0.15928215
Si       7.14732829       3.09488391      10.12062657      -0.00076028       0.00112820      -0.07484353
Si       5.35796606       3.09447692      15.17891545       0.00043375       0.00164653      -0.00962004
Si       5.36049621       3.09488393       7.58805938      -0.00019515       0.00012573      -0.08786462
C        5.36049621       3.09488393       5.68435955       0.00111689      -0.00136551       0.08016982
C        5.36049621       3.09488393      13.27662505      -0.00258730      -0.00342754       0.02690839
C        7.14732829       3.09488391       3.15844319       0.00116394      -0.00038335       0.08438026
C        8.93416034       0.00000002      10.75070869       0.00170773      -0.00237056       0.01839239
C        8.93416034       0.00000002       0.63055283       0.00119479      -0.00081684      -0.23904729
C        7.14732829       3.09488391       8.22281833       0.00022549       0.00169564       0.11458430
Si       4.46708018       1.54744195       5.05623624       0.00002083      -0.00003857      -0.05317710
Si       3.57366413       3.09488395      12.64850174       0.00029336       0.00156195      -0.05973521
Si       3.57366413       3.09488395       2.52836107      -0.00010002      -0.00002031       0.15935312
Si       4.46708018       1.54744195      10.12062657       0.00122050       0.00042449      -0.07458976
Si       8.04085770       1.54477013      15.18024604      -0.00029696       0.00238161      -0.00929042
Si       8.04074432       1.54744196       7.58805938       0.00009436       0.00007225      -0.08765045
C        8.04074432       1.54744196       5.68435955      -0.00104233      -0.00128298       0.08115996
C        8.04074432       1.54744196      13.27662505      -0.00072428      -0.00132180       0.06006611
C        4.46708018       1.54744195       3.15844319       0.00255233      -0.00068931       0.08259720
C        3.57366413       3.09488395      10.75070869      -0.00045046      -0.00173498       0.01878499
C        3.57366413       3.09488395       0.63055283       0.00123233       0.00053479      -0.24080335
C        4.46708018       1.54744195       8.22281833      -0.00001028       0.00124030       0.11401326
C        5.34403855      -0.09521113      18.61075876      -0.00166659      -0.00147247       0.01059552
C        6.68483413       0.67884270      18.61206397       0.00160488       0.00424335       0.01137945
C        4.00242283       2.22609423      18.61037237       0.00034633       0.00323522       0.01079786
C        5.34352272       2.99972255      18.61069213      -0.00122230      -0.00190724       0.00969820
C        8.02442952      -0.09433024      18.61200402      -0.00090271       0.00175349       0.01136428
C        9.36375353       0.67882872      18.61185916      -0.00105210       0.00143982       0.01258581
C        6.68450534       2.22562778      18.61194505      -0.00031136       0.00041729       0.01312342
C        8.02440864       2.99901803      18.61225512      -0.00099990       0.00062195       0.01157331
Si       4.46708018       4.64232588       5.05623624       0.00003805       0.00006556      -0.05275544
Si       3.57366413       6.18976788      12.64850174      -0.00180594      -0.00151926      -0.05887878
Si       3.57366413       6.18976788       2.52836107      -0.00015272      -0.00012187       0.15916234
Si       4.46708018       4.64232588      10.12062657      -0.00087289      -0.00094899      -0.07449437
Si       2.68176257       4.64322737      15.17879346      -0.00146501      -0.00253408      -0.00976634
Si       2.68024811       4.64232589       7.58805938       0.00007353      -0.00021777      -0.08773092
C        2.68024811       4.64232589       5.68435955      -0.00110223       0.00127552       0.08076246
C        2.68024811       4.64232589      13.27662505       0.00078804       0.00057027       0.02463374
C        4.46708018       4.64232588       3.15844319       0.00055536       0.00030108       0.08420543
C        3.57366413       6.18976788      10.75070869      -0.00236336      -0.00051088       0.01689420
C        3.57366413       6.18976788       0.63055283       0.00033476      -0.00118322      -0.23833046
C        4.46708018       4.64232588       8.22281833       0.00048208       0.00049545       0.11501959
Si       4.46708018       7.73720981       5.05623624      -0.00043863      -0.00006402      -0.05313673
Si       6.25391224       4.64232591      12.64850174       0.00014475      -0.00129301      -0.05687743
Si       6.25391224       4.64232591       2.52836107      -0.00027974      -0.00014758       0.15928627
Si       4.46708018       7.73720981      10.12062657      -0.00079344       0.00085926      -0.07486924
Si       2.67861215       7.73661102      15.17897488       0.00110712       0.00126575      -0.00966889
Si       2.68024811       7.73720982       7.58805938      -0.00017561       0.00013910      -0.08779777
C        2.68024811       7.73720982       5.68435955       0.00059495      -0.00145293       0.08016211
C        2.68024811       7.73720982      13.27662505      -0.00231091      -0.00421969       0.02842072
C        4.46708018       7.73720981       3.15844319       0.00019566      -0.00151592       0.08387633
C        6.25391224       4.64232591      10.75070869       0.00252919      -0.00235384       0.01838056
C        6.25391224       4.64232591       0.63055283       0.00012676      -0.00144702      -0.23829087
C        4.46708018       7.73720981       8.22281833       0.00040983       0.00079653       0.11486918
Si       1.78683208       6.18976784       5.05623624      -0.00003651      -0.00000103      -0.05310408
Si       0.89341603       7.73720984      12.64850174       0.00111252       0.00055484      -0.05627296
Si       0.89341603       7.73720984       2.52836107      -0.00011364       0.00003857       0.15931866
Si       1.78683208       6.18976784      10.12062657       0.00148687      -0.00018281      -0.07453705
Si       5.36028778       6.18635391      15.18019875      -0.00064638       0.00274568      -0.00936704
Si       5.36049621       6.18976786       7.58805938      -0.00003805       0.00013344      -0.08777412
C        5.36049621       6.18976786       5.68435955       0.00025711      -0.00153109       0.08205162
C        5.36049621       6.18976786      13.27662505      -0.00030725      -0.00368542       0.05824320
C        1.78683208       6.18976784       3.15844319       0.00174706      -0.00058878       0.08261751
C        0.89341603       7.73720984      10.75070869      -0.00089757      -0.00203606       0.01813193
C        0.89341603       7.73720984       0.63055283       0.00149870       0.00089397      -0.24046011
C        1.78683208       6.18976784       8.22281833      -0.00003857       0.00120122       0.11426651
C        2.66388088       4.54659397      18.60549949      -0.00105801      -0.00113103       0.00847590
C        4.00383803       5.32049489      18.61030841       0.00081787       0.00366254       0.01033352
C        1.32330406       6.86731099      18.61164020       0.00094000       0.00289249       0.01126220
C        2.66391720       7.64161126      18.61067624      -0.00165039      -0.00131306       0.00968355
C        5.34351046       4.54786391      18.61192944       0.00005888       0.00193655       0.01087422
C        6.68316100       5.32101373      18.61196229      -0.00149612       0.00095465       0.01233641
C        4.00430231       6.86733253      18.61157465       0.00004834       0.00041858       0.01196360
C        5.34411361       7.64121059      18.61215003      -0.00137683       0.00013524       0.01070710
C        2.63820965       3.79901329      22.94097757      -0.00035507      -0.00020543       0.00718520
O        2.63115874       3.78855961      24.11049353       0.00093717      -0.00039981      -0.02493996
O        2.64520290       3.80922154      21.76468673      -0.00052271       0.00204223       0.00116959
